begin
comment by xLogML
atom   0.0000000000000000E+00   0.0000000000000000E+00   2.1016030553100001E-01  O  -9.9414999999999998E-01   0.0000000000000000E+00  -8.1771614151681278E-03  -1.3731401369761799E-03  -3.7042143071606476E-03
atom   0.0000000000000000E+00   1.5129871479679999E+00  -8.4064311185100005E-01  H   5.0310999999999995E-01   0.0000000000000000E+00   1.9539113315142193E-03   3.3270514684904003E-03  -1.1977208312092442E-03
atom  -1.5129871479679999E+00   0.0000000000000000E+00  -6.5167042407400000E-01  H   4.9103999999999998E-01   0.0000000000000000E+00   6.2232500836539098E-03  -1.9539113315142189E-03   4.9019351383698898E-03
energy  -7.6427322575670615E+01
dipole   0.0000000000000000E+00   0.0000000000000000E+00   0.0000000000000000E+00
charge   0.0000000000000000E+00
end
