 Entering Gaussian System, Link 0=/pbs/throng/ilm/sl6/allouche/Gaussian09D/g09/g09
 Initial command:
 /pbs/throng/ilm/sl6/allouche/Gaussian09D/g09/l1.exe "/scratch/6332003.1.long/Gau-96288.inp" -scrdir="/scratch/6332003.1.long/"
 Entering Link 1 = /pbs/throng/ilm/sl6/allouche/Gaussian09D/g09/l1.exe PID=     96289.
  
 Copyright (c) 1988,1990,1992,1993,1995,1998,2003,2009,2013,
            Gaussian, Inc.  All Rights Reserved.
  
 This is part of the Gaussian(R) 09 program.  It is based on
 the Gaussian(R) 03 system (copyright 2003, Gaussian, Inc.),
 the Gaussian(R) 98 system (copyright 1998, Gaussian, Inc.),
 the Gaussian(R) 94 system (copyright 1995, Gaussian, Inc.),
 the Gaussian 92(TM) system (copyright 1992, Gaussian, Inc.),
 the Gaussian 90(TM) system (copyright 1990, Gaussian, Inc.),
 the Gaussian 88(TM) system (copyright 1988, Gaussian, Inc.),
 the Gaussian 86(TM) system (copyright 1986, Carnegie Mellon
 University), and the Gaussian 82(TM) system (copyright 1983,
 Carnegie Mellon University). Gaussian is a federally registered
 trademark of Gaussian, Inc.
  
 This software contains proprietary and confidential information,
 including trade secrets, belonging to Gaussian, Inc.
  
 This software is provided under written license and may be
 used, copied, transmitted, or stored only in accord with that
 written license.
  
 The following legend is applicable only to US Government
 contracts under FAR:
  
                    RESTRICTED RIGHTS LEGEND
  
 Use, reproduction and disclosure by the US Government is
 subject to restrictions as set forth in subparagraphs (a)
 and (c) of the Commercial Computer Software - Restricted
 Rights clause in FAR 52.227-19.
  
 Gaussian, Inc.
 340 Quinnipiac St., Bldg. 40, Wallingford CT 06492
  
  
 ---------------------------------------------------------------
 Warning -- This program may not be used in any manner that
 competes with the business of Gaussian, Inc. or will provide
 assistance to any competitor of Gaussian, Inc.  The licensee
 of this program is prohibited from giving any competitor of
 Gaussian, Inc. access to this program.  By using this program,
 the user acknowledges that Gaussian, Inc. is engaged in the
 business of creating and licensing software in the field of
 computational chemistry and represents and warrants to the
 licensee that it is not a competitor of Gaussian, Inc. and that
 it will not use this program in any manner prohibited above.
 ---------------------------------------------------------------
  

 Cite this work as:
 Gaussian 09, Revision D.01,
 M. J. Frisch, G. W. Trucks, H. B. Schlegel, G. E. Scuseria, 
 M. A. Robb, J. R. Cheeseman, G. Scalmani, V. Barone, B. Mennucci, 
 G. A. Petersson, H. Nakatsuji, M. Caricato, X. Li, H. P. Hratchian, 
 A. F. Izmaylov, J. Bloino, G. Zheng, J. L. Sonnenberg, M. Hada, 
 M. Ehara, K. Toyota, R. Fukuda, J. Hasegawa, M. Ishida, T. Nakajima, 
 Y. Honda, O. Kitao, H. Nakai, T. Vreven, J. A. Montgomery, Jr., 
 J. E. Peralta, F. Ogliaro, M. Bearpark, J. J. Heyd, E. Brothers, 
 K. N. Kudin, V. N. Staroverov, T. Keith, R. Kobayashi, J. Normand, 
 K. Raghavachari, A. Rendell, J. C. Burant, S. S. Iyengar, J. Tomasi, 
 M. Cossi, N. Rega, J. M. Millam, M. Klene, J. E. Knox, J. B. Cross, 
 V. Bakken, C. Adamo, J. Jaramillo, R. Gomperts, R. E. Stratmann, 
 O. Yazyev, A. J. Austin, R. Cammi, C. Pomelli, J. W. Ochterski, 
 R. L. Martin, K. Morokuma, V. G. Zakrzewski, G. A. Voth, 
 P. Salvador, J. J. Dannenberg, S. Dapprich, A. D. Daniels, 
 O. Farkas, J. B. Foresman, J. V. Ortiz, J. Cioslowski, 
 and D. J. Fox, Gaussian, Inc., Wallingford CT, 2013.
 
 ******************************************
 Gaussian 09:  EM64L-G09RevD.01 24-Apr-2013
                16-May-2019 
 ******************************************
 -------------------------------------------------
 # B2PLYP/def2tzvpp nosym scf(tight) force Pop=NPA
 -------------------------------------------------
 1/10=7,30=1,38=1/1,3;
 2/12=2,15=1,17=6,18=5,40=1/2;
 3/5=44,7=202,11=9,16=1,25=1,30=1,71=1,74=-47/1,2,3;
 4//1;
 5/5=2,32=2,38=5/2;
 8/6=4,10=1/1;
 9/15=2,16=-3/6;
 10/5=1,31=1/2;
 6/7=2,8=2,9=2,10=2,18=1,40=-1/1,7;
 7/12=2,29=1,30=1/1,2,3,16;
 1/10=7,30=1/3;
 99//99;
 -----
 xPert
 -----
 Symbolic Z-matrix:
 Charge =  0 Multiplicity = 1
 H                     0.        0.70857  -0.4694 
 H                     0.       -0.75857  -0.4694 
 O                     0.        0.        0.11735 
 

 GradGradGradGradGradGradGradGradGradGradGradGradGradGradGradGradGradGrad
 Berny optimization.
 Initialization pass.
 Trust Radius=3.00D-01 FncErr=1.00D-07 GrdErr=1.00D-07
 Number of steps in this run=      2 maximum allowed number of steps=      2.
 GradGradGradGradGradGradGradGradGradGradGradGradGradGradGradGradGradGrad

                          Input orientation:                          
 ---------------------------------------------------------------------
 Center     Atomic      Atomic             Coordinates (Angstroms)
 Number     Number       Type             X           Y           Z
 ---------------------------------------------------------------------
      1          1           0        0.000000    0.708568   -0.469403
      2          1           0        0.000000   -0.758568   -0.469403
      3          8           0        0.000000    0.000000    0.117351
 ---------------------------------------------------------------------
                    Distance matrix (angstroms):
                    1          2          3
     1  H    0.000000
     2  H    1.467136   0.000000
     3  O    0.919972   0.959013   0.000000
 Symmetry turned off by external request.
 Stoichiometry    H2O
 Framework group  CS[SG(H2O)]
 Deg. of freedom     3
 Full point group                 CS      NOp   2
 Rotational constants (GHZ):    821.9932576    464.8238340    296.9202538
 Standard basis: def2TZVPP (5D, 7F)
    59 basis functions,    85 primitive gaussians,    66 cartesian basis functions
     5 alpha electrons        5 beta electrons
       nuclear repulsion energy         9.3767163819 Hartrees.
 NAtoms=    3 NActive=    3 NUniq=    3 SFac= 1.00D+00 NAtFMM=   60 NAOKFM=F Big=F
 Integral buffers will be    131072 words long.
 Regular integral format.
 Two-electron integral symmetry is turned off.
 One-electron integrals computed using PRISM.
   1 Symmetry operations used in ECPInt.
 ECPInt:  NShTT=     276 NPrTT=     694 LenC2=     277 LenP2D=     681.
 LDataN:  DoStor=T MaxTD1= 6 Len=  172
 NBasis=    59 RedAO= T EigKep=  2.10D-03  NBF=    59
 NBsUse=    59 1.00D-06 EigRej= -1.00D+00 NBFU=    59
 ExpMin= 1.03D-01 ExpMax= 2.70D+04 ExpMxC= 9.22D+02 IAcc=1 IRadAn=         1 AccDes= 0.00D+00
 Harris functional with IExCor=  419 and IRadAn=       1 diagonalized for initial guess.
 HarFok:  IExCor=  419 AccDes= 0.00D+00 IRadAn=         1 IDoV= 1 UseB2=F ITyADJ=14
 ICtDFT=  3500011 ScaDFX=  1.000000  1.000000  1.000000  1.000000
 FoFCou: FMM=F IPFlag=           0 FMFlag=      100000 FMFlg1=           0
         NFxFlg=           0 DoJE=T BraDBF=F KetDBF=T FulRan=T
         wScrn=  0.000000 ICntrl=     500 IOpCl=  0 I1Cent=   200000004 NGrid=           0
         NMat0=    1 NMatS0=      1 NMatT0=    0 NMatD0=    1 NMtDS0=    0 NMtDT0=    0
 Symmetry not used in FoFCou.
 Keep R1 ints in memory in canonical form, NReq=3557649.
 Requested convergence on RMS density matrix=1.00D-08 within 128 cycles.
 Requested convergence on MAX density matrix=1.00D-06.
 Requested convergence on             energy=1.00D-06.
 No special actions if energy rises.
 Integral accuracy reduced to 1.0D-05 until final iterations.
 Initial convergence to 1.0D-05 achieved.  Increase integral accuracy.
 SCF Done:  E(RB2PLYP) =  -76.3285278095     A.U. after   10 cycles
            NFock= 10  Conv=0.42D-08     -V/T= 2.0015
 DoSCS=T DFT=T ScalE2(SS,OS)=  0.270000  0.270000
 ExpMin= 1.03D-01 ExpMax= 2.70D+04 ExpMxC= 9.22D+02 IAcc=3 IRadAn=         5 AccDes= 0.00D+00
 HarFok:  IExCor=  205 AccDes= 0.00D+00 IRadAn=         5 IDoV=-2 UseB2=F ITyADJ=14
 ICtDFT= 12500011 ScaDFX=  1.000000  1.000000  1.000000  1.000000
 Range of M.O.s used for correlation:     2    59
 NBasis=    59 NAE=     5 NBE=     5 NFC=     1 NFV=     0
 NROrb=     58 NOA=     4 NOB=     4 NVA=    54 NVB=    54
 DoSCS=T DFT=T ScalE2(SS,OS)=  0.270000  0.270000
 Fully direct method using O(ONN) memory.
 JobTyp=1 Pass  1:  I=   2 to   5 NPSUse=  1 ParTrn=F ParDer=F DoDerP=T.
 Spin components of T(2) and E(2):
     alpha-alpha T2 =       0.1138119348D-01 E2=     -0.1015964632D-01
     alpha-beta  T2 =       0.6581303757D-01 E2=     -0.6265515363D-01
     beta-beta   T2 =       0.1138119348D-01 E2=     -0.1015964632D-01
 E2(B2PLYP) =    -0.8297444628D-01 E(B2PLYP) =    -0.76411502255774D+02
          IDoAtm=111
          Differentiating once with respect to electric field.
                with respect to dipole field.
          Differentiating once with respect to nuclear coordinates.
 Keep R1 ints in memory in canonical form, NReq=3533389.
          There are     1 degrees of freedom in the 1st order CPHF.  IDoFFX=0 NUNeed=     1.
 LinEq1:  Iter=  0 NonCon=     1 RMS=1.84D-03 Max=1.49D-02 NDo=     1
 AX will form     1 AO Fock derivatives at one time.
 LinEq1:  Iter=  1 NonCon=     1 RMS=1.91D-04 Max=1.47D-03 NDo=     1
 LinEq1:  Iter=  2 NonCon=     1 RMS=4.60D-05 Max=3.75D-04 NDo=     1
 LinEq1:  Iter=  3 NonCon=     1 RMS=2.03D-05 Max=1.21D-04 NDo=     1
 LinEq1:  Iter=  4 NonCon=     1 RMS=5.40D-06 Max=3.33D-05 NDo=     1
 LinEq1:  Iter=  5 NonCon=     1 RMS=3.31D-07 Max=2.36D-06 NDo=     1
 LinEq1:  Iter=  6 NonCon=     1 RMS=6.90D-08 Max=5.77D-07 NDo=     1
 LinEq1:  Iter=  7 NonCon=     1 RMS=1.56D-08 Max=1.05D-07 NDo=     1
 LinEq1:  Iter=  8 NonCon=     1 RMS=1.68D-09 Max=1.44D-08 NDo=     1
 LinEq1:  Iter=  9 NonCon=     0 RMS=8.92D-11 Max=7.35D-10 NDo=     1
 Linear equations converged to 1.000D-10 1.000D-09 after     9 iterations.
 End of Minotr F.D. properties file   721 does not exist.
 End of Minotr F.D. properties file   722 does not exist.
 End of Minotr F.D. properties file   788 does not exist.

 **********************************************************************

            Population analysis using the SCF density.

 **********************************************************************

 Alpha  occ. eigenvalues --  -19.72310  -1.16438  -0.61441  -0.47707  -0.39835
 Alpha virt. eigenvalues --    0.06218   0.13856   0.42746   0.45926   0.49302
 Alpha virt. eigenvalues --    0.50714   0.61332   0.62774   0.71026   0.75725
 Alpha virt. eigenvalues --    0.83839   1.09516   1.25714   1.31983   1.77549
 Alpha virt. eigenvalues --    1.87384   1.90378   1.90713   1.99902   2.20120
 Alpha virt. eigenvalues --    2.51614   2.71010   2.86681   3.15719   3.26989
 Alpha virt. eigenvalues --    3.41872   3.41912   3.48383   3.55311   3.68486
 Alpha virt. eigenvalues --    3.71576   3.76539   3.79268   4.13620   4.23902
 Alpha virt. eigenvalues --    4.25153   4.33186   4.76013   4.83638   4.96797
 Alpha virt. eigenvalues --    5.18041   5.82593   6.43429   6.60426   6.65211
 Alpha virt. eigenvalues --    6.72485   6.74232   6.80297   7.02868   7.08503
 Alpha virt. eigenvalues --    7.64363   7.69062   7.86915  44.22010
          Condensed to atoms (all electrons):
               1          2          3
     1  H    0.491192  -0.030108   0.350776
     2  H   -0.030108   0.480868   0.339432
     3  O    0.350776   0.339432   7.707740
 Mulliken charges:
               1
     1  H    0.188140
     2  H    0.209808
     3  O   -0.397948
 Sum of Mulliken charges =   0.00000
 Mulliken charges with hydrogens summed into heavy atoms:
               1
     3  O    0.000000
 Electronic spatial extent (au):  <R**2>=             19.2096
 Charge=              0.0000 electrons
 Dipole moment (field-independent basis, Debye):
    X=              0.0000    Y=             -0.0618    Z=             -2.0107  Tot=              2.0116
 Quadrupole moment (field-independent basis, Debye-Ang):
   XX=             -7.4227   YY=             -4.4189   ZZ=             -6.1747
   XY=              0.0000   XZ=              0.0000   YZ=              0.0322
 Traceless Quadrupole moment (field-independent basis, Debye-Ang):
   XX=             -1.4173   YY=              1.5866   ZZ=             -0.1693
   XY=              0.0000   XZ=              0.0000   YZ=              0.0322
 Octapole moment (field-independent basis, Debye-Ang**2):
  XXX=              0.0000  YYY=             -0.0309  ZZZ=             -1.2478  XYY=              0.0000
  XXY=              0.0482  XXZ=             -0.3187  XZZ=              0.0000  YZZ=              0.0247
  YYZ=             -1.2772  XYZ=              0.0000
 Hexadecapole moment (field-independent basis, Debye-Ang**3):
 XXXX=             -6.1412 YYYY=             -6.0065 ZZZZ=             -6.8861 XXXY=              0.0000
 XXXZ=              0.0000 YYYX=              0.0000 YYYZ=              0.0254 ZZZX=              0.0000
 ZZZY=             -0.0589 XXYY=             -2.3022 XXZZ=             -2.2263 YYZZ=             -1.8152
 XXYZ=             -0.0228 YYXZ=              0.0000 ZZXY=              0.0000
 N-N= 9.376716381949D+00 E-N=-1.996512522942D+02  KE= 7.621748302949D+01
 ******************************Gaussian NBO Version 3.1******************************
             N A T U R A L   A T O M I C   O R B I T A L   A N D
          N A T U R A L   B O N D   O R B I T A L   A N A L Y S I S
 ******************************Gaussian NBO Version 3.1******************************
       /RESON  / : Allow strongly delocalized NBO set

 Analyzing the SCF density

 Job title: xPert                                                           

 Storage needed:     10799 in NPA ( 536870849 available)


 NATURAL POPULATIONS:  Natural atomic orbital occupancies 
                                                          
   NAO  Atom  No  lang   Type(AO)    Occupancy      Energy
 ----------------------------------------------------------
     1    H    1  S      Val( 1S)     0.54235       0.21721
     2    H    1  S      Ryd( 2S)     0.00134       0.87723
     3    H    1  S      Ryd( 3S)     0.00009       1.60662
     4    H    1  px     Ryd( 2p)     0.00217       1.76886
     5    H    1  px     Ryd( 3p)     0.00000       3.50923
     6    H    1  py     Ryd( 2p)     0.00034       2.44557
     7    H    1  py     Ryd( 3p)     0.00066       3.76566
     8    H    1  pz     Ryd( 2p)     0.00136       2.19363
     9    H    1  pz     Ryd( 3p)     0.00067       3.68769
    10    H    1  dxy    Ryd( 3d)     0.00001       3.84946
    11    H    1  dxz    Ryd( 3d)     0.00001       3.72386
    12    H    1  dyz    Ryd( 3d)     0.00003       4.23714
    13    H    1  dx2y2  Ryd( 3d)     0.00013       3.96809
    14    H    1  dz2    Ryd( 3d)     0.00002       3.95714

    15    H    2  S      Val( 1S)     0.53935       0.16209
    16    H    2  S      Ryd( 2S)     0.00131       0.82323
    17    H    2  S      Ryd( 3S)     0.00008       1.71941
    18    H    2  px     Ryd( 2p)     0.00208       1.66084
    19    H    2  px     Ryd( 3p)     0.00000       3.50463
    20    H    2  py     Ryd( 2p)     0.00031       2.39200
    21    H    2  py     Ryd( 3p)     0.00059       3.79490
    22    H    2  pz     Ryd( 2p)     0.00139       2.06826
    23    H    2  pz     Ryd( 3p)     0.00056       3.68848
    24    H    2  dxy    Ryd( 3d)     0.00001       3.84593
    25    H    2  dxz    Ryd( 3d)     0.00001       3.67778
    26    H    2  dyz    Ryd( 3d)     0.00002       4.18493
    27    H    2  dx2y2  Ryd( 3d)     0.00012       3.95471
    28    H    2  dz2    Ryd( 3d)     0.00002       3.91133

    29    O    3  S      Cor( 1S)     1.99985     -19.49106
    30    O    3  S      Val( 2S)     1.73410      -1.06124
    31    O    3  S      Ryd( 3S)     0.00063       2.10338
    32    O    3  S      Ryd( 4S)     0.00000      20.88279
    33    O    3  S      Ryd( 5S)     0.00000      25.26108
    34    O    3  px     Val( 2p)     1.99135      -0.39194
    35    O    3  px     Ryd( 3p)     0.00146       0.63035
    36    O    3  px     Ryd( 4p)     0.00000       2.65305
    37    O    3  py     Val( 2p)     1.45459      -0.29891
    38    O    3  py     Ryd( 3p)     0.00320       0.71499
    39    O    3  py     Ryd( 4p)     0.00001       3.34023
    40    O    3  pz     Val( 2p)     1.71059      -0.34821
    41    O    3  pz     Ryd( 3p)     0.00036       0.67898
    42    O    3  pz     Ryd( 4p)     0.00016       3.05485
    43    O    3  dxy    Ryd( 3d)     0.00000       2.34878
    44    O    3  dxy    Ryd( 4d)     0.00000       6.50494
    45    O    3  dxz    Ryd( 3d)     0.00263       2.21994
    46    O    3  dxz    Ryd( 4d)     0.00003       6.49249
    47    O    3  dyz    Ryd( 3d)     0.00182       3.64375
    48    O    3  dyz    Ryd( 4d)     0.00020       7.07889
    49    O    3  dx2y2  Ryd( 3d)     0.00083       2.75650
    50    O    3  dx2y2  Ryd( 4d)     0.00001       6.67543
    51    O    3  dz2    Ryd( 3d)     0.00274       2.51844
    52    O    3  dz2    Ryd( 4d)     0.00003       6.59767
    53    O    3  f(0)   Ryd( 4f)     0.00002       5.97197
    54    O    3  f(C1)  Ryd( 4f)     0.00003       5.61269
    55    O    3  f(S1)  Ryd( 4f)     0.00003       6.45266
    56    O    3  f(C2)  Ryd( 4f)     0.00007       6.34309
    57    O    3  f(S2)  Ryd( 4f)     0.00000       6.07739
    58    O    3  f(C3)  Ryd( 4f)     0.00019       5.86515
    59    O    3  f(S3)  Ryd( 4f)     0.00004       5.88686

 WARNING:  Population inversion found on atom  H    1
           Population inversion found on atom  H    2


 Summary of Natural Population Analysis:                  
                                                          
                                       Natural Population 
                Natural  -----------------------------------------------
    Atom  No    Charge         Core      Valence    Rydberg      Total
 -----------------------------------------------------------------------
      H    1    0.45083      0.00000     0.54235    0.00683     0.54917
      H    2    0.45414      0.00000     0.53935    0.00651     0.54586
      O    3   -0.90496      1.99985     6.89063    0.01449     8.90496
 =======================================================================
   * Total *    0.00000      1.99985     7.97233    0.02783    10.00000

                                 Natural Population      
 --------------------------------------------------------
   Core                       1.99985 ( 99.9923% of   2)
   Valence                    7.97233 ( 99.6541% of   8)
   Natural Minimal Basis      9.97217 ( 99.7217% of  10)
   Natural Rydberg Basis      0.02783 (  0.2783% of  10)
 --------------------------------------------------------

    Atom  No          Natural Electron Configuration
 ----------------------------------------------------------------------------
      H    1            1S( 0.54)
      H    2            1S( 0.54)
      O    3      [core]2S( 1.73)2p( 5.16)3p( 0.01)3d( 0.01)


 NBO analysis skipped by request.
   1 Symmetry operations used in ECPInt.
 ECPInt:  NShTT=     276 NPrTT=     694 LenC2=     277 LenP2D=     681.
 LDataN:  DoStor=T MaxTD1= 7 Len=  274
 Calling FoFJK, ICntrl=  10002127 FMM=F ISym2X=0 I1Cent= 0 IOpClX= 0 NMat=1 NMatS=1 NMatT=0.
 -------------------------------------------------------------------
 Center     Atomic                   Forces (Hartrees/Bohr)
 Number     Number              X              Y              Z
 -------------------------------------------------------------------
      1        1           0.000000000    0.039135903   -0.026519734
      2        1           0.000000000   -0.003198650    0.003025234
      3        8           0.000000000   -0.035937253    0.023494499
 -------------------------------------------------------------------
 Cartesian Forces:  Max     0.039135903 RMS     0.021337959

 GradGradGradGradGradGradGradGradGradGradGradGradGradGradGradGradGradGrad
 Berny optimization.
 Search for a local minimum.
 Step number   1 out of a maximum of    2
 All quantities printed in internal units (Hartrees-Bohrs-Radians)
 Second derivative matrix not updated -- first step.
 The second derivative matrix:
                          X1        Y1        Z1        X2        Y2
           X1           1.00000
           Y1           0.00000   0.40746
           Z1           0.00000  -0.29358   0.29604
           X2           0.00000   0.00000   0.00000   1.00000
           Y2           0.00000  -0.01982  -0.02393   0.00000   0.36664
           Z2           0.00000   0.02562   0.03094   0.00000   0.24592
           X3           0.00000   0.00000   0.00000   0.00000   0.00000
           Y3           0.00000  -0.38765   0.31751   0.00000  -0.34683
           Z3           0.00000   0.26796  -0.32698   0.00000  -0.22199
                          Z2        X3        Y3        Z3
           Z2           0.23893
           X3           0.00000   1.00000
           Y3          -0.27154   0.00000   0.73447
           Z3          -0.26987   0.00000  -0.04597   0.59686
 ITU=  0
     Eigenvalues ---    0.15033   0.91502   1.10908
 Angle between quadratic step and forces=  47.75 degrees.
 Linear search not attempted -- first point.
 TrRot=  0.000000 -0.008561 -0.002634  0.000000  0.000000  0.000000
 Variable       Old X    -DE/DX   Delta X   Delta X   Delta X     New X
                                 (Linear)    (Quad)   (Total)
    X1        0.00000   0.00000   0.00000   0.00000   0.00000   0.00000
    Y1        1.33900   0.03914   0.00000   0.07552   0.06696   1.40596
    Z1       -0.88704  -0.02652   0.00000  -0.00957  -0.01220  -0.89925
    X2        0.00000   0.00000   0.00000   0.00000   0.00000   0.00000
    Y2       -1.43349  -0.00320   0.00000  -0.03579  -0.04435  -1.47784
    Z2       -0.88704   0.00303   0.00000   0.02179   0.01916  -0.86788
    X3        0.00000   0.00000   0.00000   0.00000   0.00000   0.00000
    Y3        0.00000  -0.03594   0.00000  -0.01405  -0.02261  -0.02261
    Z3        0.22176   0.02349   0.00000  -0.00432  -0.00696   0.21481
         Item               Value     Threshold  Converged?
 Maximum Force            0.039136     0.000450     NO 
 RMS     Force            0.021338     0.000300     NO 
 Maximum Displacement     0.066959     0.001800     NO 
 RMS     Displacement     0.028918     0.001200     NO 
 Predicted change in Energy=-1.896502D-03
 GradGradGradGradGradGradGradGradGradGradGradGradGradGradGradGradGradGrad

 1\1\GINC-CCWSGE0295\Force\RB2PLYP-FC\def2TZVPP\H2O1\ALLOUCHE\16-May-20
 19\0\\# B2PLYP/def2tzvpp nosym scf(tight) force Pop=NPA\\xPert\\0,1\H,
 0.,0.708568,-0.469403\H,0.,-0.758568,-0.469403\O,0.,0.,0.117351\\Versi
 on=EM64L-G09RevD.01\HF=-76.3285278\MP2=-76.4115023\RMSD=4.241e-09\RMSF
 =2.134e-02\Dipole=0.,-0.02327,-0.7731325\PG=CS [SG(H2O1)]\\@


 TRUST EVERYONE, BUT CUT THE CARDS.
 Job cpu time:       0 days  0 hours  0 minutes 14.9 seconds.
 File lengths (MBytes):  RWF=      5 Int=      0 D2E=      0 Chk=      1 Scr=      1
 Normal termination of Gaussian 09 at Thu May 16 09:04:34 2019.
