 Entering Gaussian System, Link 0=/pbs/throng/ilm/sl6/allouche/Gaussian09D/g09/g09
 Initial command:
 /pbs/throng/ilm/sl6/allouche/Gaussian09D/g09/l1.exe "/scratch/6332006.1.long/Gau-107163.inp" -scrdir="/scratch/6332006.1.long/"
 Entering Link 1 = /pbs/throng/ilm/sl6/allouche/Gaussian09D/g09/l1.exe PID=    107170.
  
 Copyright (c) 1988,1990,1992,1993,1995,1998,2003,2009,2013,
            Gaussian, Inc.  All Rights Reserved.
  
 This is part of the Gaussian(R) 09 program.  It is based on
 the Gaussian(R) 03 system (copyright 2003, Gaussian, Inc.),
 the Gaussian(R) 98 system (copyright 1998, Gaussian, Inc.),
 the Gaussian(R) 94 system (copyright 1995, Gaussian, Inc.),
 the Gaussian 92(TM) system (copyright 1992, Gaussian, Inc.),
 the Gaussian 90(TM) system (copyright 1990, Gaussian, Inc.),
 the Gaussian 88(TM) system (copyright 1988, Gaussian, Inc.),
 the Gaussian 86(TM) system (copyright 1986, Carnegie Mellon
 University), and the Gaussian 82(TM) system (copyright 1983,
 Carnegie Mellon University). Gaussian is a federally registered
 trademark of Gaussian, Inc.
  
 This software contains proprietary and confidential information,
 including trade secrets, belonging to Gaussian, Inc.
  
 This software is provided under written license and may be
 used, copied, transmitted, or stored only in accord with that
 written license.
  
 The following legend is applicable only to US Government
 contracts under FAR:
  
                    RESTRICTED RIGHTS LEGEND
  
 Use, reproduction and disclosure by the US Government is
 subject to restrictions as set forth in subparagraphs (a)
 and (c) of the Commercial Computer Software - Restricted
 Rights clause in FAR 52.227-19.
  
 Gaussian, Inc.
 340 Quinnipiac St., Bldg. 40, Wallingford CT 06492
  
  
 ---------------------------------------------------------------
 Warning -- This program may not be used in any manner that
 competes with the business of Gaussian, Inc. or will provide
 assistance to any competitor of Gaussian, Inc.  The licensee
 of this program is prohibited from giving any competitor of
 Gaussian, Inc. access to this program.  By using this program,
 the user acknowledges that Gaussian, Inc. is engaged in the
 business of creating and licensing software in the field of
 computational chemistry and represents and warrants to the
 licensee that it is not a competitor of Gaussian, Inc. and that
 it will not use this program in any manner prohibited above.
 ---------------------------------------------------------------
  

 Cite this work as:
 Gaussian 09, Revision D.01,
 M. J. Frisch, G. W. Trucks, H. B. Schlegel, G. E. Scuseria, 
 M. A. Robb, J. R. Cheeseman, G. Scalmani, V. Barone, B. Mennucci, 
 G. A. Petersson, H. Nakatsuji, M. Caricato, X. Li, H. P. Hratchian, 
 A. F. Izmaylov, J. Bloino, G. Zheng, J. L. Sonnenberg, M. Hada, 
 M. Ehara, K. Toyota, R. Fukuda, J. Hasegawa, M. Ishida, T. Nakajima, 
 Y. Honda, O. Kitao, H. Nakai, T. Vreven, J. A. Montgomery, Jr., 
 J. E. Peralta, F. Ogliaro, M. Bearpark, J. J. Heyd, E. Brothers, 
 K. N. Kudin, V. N. Staroverov, T. Keith, R. Kobayashi, J. Normand, 
 K. Raghavachari, A. Rendell, J. C. Burant, S. S. Iyengar, J. Tomasi, 
 M. Cossi, N. Rega, J. M. Millam, M. Klene, J. E. Knox, J. B. Cross, 
 V. Bakken, C. Adamo, J. Jaramillo, R. Gomperts, R. E. Stratmann, 
 O. Yazyev, A. J. Austin, R. Cammi, C. Pomelli, J. W. Ochterski, 
 R. L. Martin, K. Morokuma, V. G. Zakrzewski, G. A. Voth, 
 P. Salvador, J. J. Dannenberg, S. Dapprich, A. D. Daniels, 
 O. Farkas, J. B. Foresman, J. V. Ortiz, J. Cioslowski, 
 and D. J. Fox, Gaussian, Inc., Wallingford CT, 2013.
 
 ******************************************
 Gaussian 09:  EM64L-G09RevD.01 24-Apr-2013
                16-May-2019 
 ******************************************
 -------------------------------------------------
 # B2PLYP/def2tzvpp nosym scf(tight) force Pop=NPA
 -------------------------------------------------
 1/10=7,30=1,38=1/1,3;
 2/12=2,15=1,17=6,18=5,40=1/2;
 3/5=44,7=202,11=9,16=1,25=1,30=1,71=1,74=-47/1,2,3;
 4//1;
 5/5=2,32=2,38=5/2;
 8/6=4,10=1/1;
 9/15=2,16=-3/6;
 10/5=1,31=1/2;
 6/7=2,8=2,9=2,10=2,18=1,40=-1/1,7;
 7/12=2,29=1,30=1/1,2,3,16;
 1/10=7,30=1/3;
 99//99;
 -----
 xPert
 -----
 Symbolic Z-matrix:
 Charge =  0 Multiplicity = 1
 H                     0.        0.75857  -0.5194 
 H                     0.       -0.75857  -0.4694 
 O                     0.        0.        0.11735 
 

 GradGradGradGradGradGradGradGradGradGradGradGradGradGradGradGradGradGrad
 Berny optimization.
 Initialization pass.
 Trust Radius=3.00D-01 FncErr=1.00D-07 GrdErr=1.00D-07
 Number of steps in this run=      2 maximum allowed number of steps=      2.
 GradGradGradGradGradGradGradGradGradGradGradGradGradGradGradGradGradGrad

                          Input orientation:                          
 ---------------------------------------------------------------------
 Center     Atomic      Atomic             Coordinates (Angstroms)
 Number     Number       Type             X           Y           Z
 ---------------------------------------------------------------------
      1          1           0        0.000000    0.758568   -0.519403
      2          1           0        0.000000   -0.758568   -0.469403
      3          8           0        0.000000    0.000000    0.117351
 ---------------------------------------------------------------------
                    Distance matrix (angstroms):
                    1          2          3
     1  H    0.000000
     2  H    1.517960   0.000000
     3  O    0.990394   0.959013   0.000000
 Symmetry turned off by external request.
 Stoichiometry    H2O
 Framework group  CS[SG(H2O)]
 Deg. of freedom     3
 Full point group                 CS      NOp   2
 Rotational constants (GHZ):    756.3193698    434.6119096    276.0070302
 Standard basis: def2TZVPP (5D, 7F)
    59 basis functions,    85 primitive gaussians,    66 cartesian basis functions
     5 alpha electrons        5 beta electrons
       nuclear repulsion energy         9.0374366387 Hartrees.
 NAtoms=    3 NActive=    3 NUniq=    3 SFac= 1.00D+00 NAtFMM=   60 NAOKFM=F Big=F
 Integral buffers will be    131072 words long.
 Regular integral format.
 Two-electron integral symmetry is turned off.
 One-electron integrals computed using PRISM.
   1 Symmetry operations used in ECPInt.
 ECPInt:  NShTT=     276 NPrTT=     694 LenC2=     277 LenP2D=     680.
 LDataN:  DoStor=T MaxTD1= 6 Len=  172
 NBasis=    59 RedAO= T EigKep=  2.40D-03  NBF=    59
 NBsUse=    59 1.00D-06 EigRej= -1.00D+00 NBFU=    59
 ExpMin= 1.03D-01 ExpMax= 2.70D+04 ExpMxC= 9.22D+02 IAcc=1 IRadAn=         1 AccDes= 0.00D+00
 Harris functional with IExCor=  419 and IRadAn=       1 diagonalized for initial guess.
 HarFok:  IExCor=  419 AccDes= 0.00D+00 IRadAn=         1 IDoV= 1 UseB2=F ITyADJ=14
 ICtDFT=  3500011 ScaDFX=  1.000000  1.000000  1.000000  1.000000
 FoFCou: FMM=F IPFlag=           0 FMFlag=      100000 FMFlg1=           0
         NFxFlg=           0 DoJE=T BraDBF=F KetDBF=T FulRan=T
         wScrn=  0.000000 ICntrl=     500 IOpCl=  0 I1Cent=   200000004 NGrid=           0
         NMat0=    1 NMatS0=      1 NMatT0=    0 NMatD0=    1 NMtDS0=    0 NMtDT0=    0
 Symmetry not used in FoFCou.
 Keep R1 ints in memory in canonical form, NReq=3557635.
 Requested convergence on RMS density matrix=1.00D-08 within 128 cycles.
 Requested convergence on MAX density matrix=1.00D-06.
 Requested convergence on             energy=1.00D-06.
 No special actions if energy rises.
 Integral accuracy reduced to 1.0D-05 until final iterations.
 Initial convergence to 1.0D-05 achieved.  Increase integral accuracy.
 SCF Done:  E(RB2PLYP) =  -76.3282152581     A.U. after   10 cycles
            NFock= 10  Conv=0.40D-08     -V/T= 2.0032
 DoSCS=T DFT=T ScalE2(SS,OS)=  0.270000  0.270000
 ExpMin= 1.03D-01 ExpMax= 2.70D+04 ExpMxC= 9.22D+02 IAcc=3 IRadAn=         5 AccDes= 0.00D+00
 HarFok:  IExCor=  205 AccDes= 0.00D+00 IRadAn=         5 IDoV=-2 UseB2=F ITyADJ=14
 ICtDFT= 12500011 ScaDFX=  1.000000  1.000000  1.000000  1.000000
 Range of M.O.s used for correlation:     2    59
 NBasis=    59 NAE=     5 NBE=     5 NFC=     1 NFV=     0
 NROrb=     58 NOA=     4 NOB=     4 NVA=    54 NVB=    54
 DoSCS=T DFT=T ScalE2(SS,OS)=  0.270000  0.270000
 Fully direct method using O(ONN) memory.
 JobTyp=1 Pass  1:  I=   2 to   5 NPSUse=  1 ParTrn=F ParDer=F DoDerP=T.
 Spin components of T(2) and E(2):
     alpha-alpha T2 =       0.1187610805D-01 E2=     -0.1028887419D-01
     alpha-beta  T2 =       0.6921797178D-01 E2=     -0.6355482244D-01
     beta-beta   T2 =       0.1187610805D-01 E2=     -0.1028887419D-01
 E2(B2PLYP) =    -0.8413257081D-01 E(B2PLYP) =    -0.76412347828950D+02
          IDoAtm=111
          Differentiating once with respect to electric field.
                with respect to dipole field.
          Differentiating once with respect to nuclear coordinates.
 Keep R1 ints in memory in canonical form, NReq=3533351.
          There are     1 degrees of freedom in the 1st order CPHF.  IDoFFX=0 NUNeed=     1.
 LinEq1:  Iter=  0 NonCon=     1 RMS=1.96D-03 Max=1.60D-02 NDo=     1
 AX will form     1 AO Fock derivatives at one time.
 LinEq1:  Iter=  1 NonCon=     1 RMS=2.19D-04 Max=1.75D-03 NDo=     1
 LinEq1:  Iter=  2 NonCon=     1 RMS=6.08D-05 Max=5.13D-04 NDo=     1
 LinEq1:  Iter=  3 NonCon=     1 RMS=2.76D-05 Max=1.50D-04 NDo=     1
 LinEq1:  Iter=  4 NonCon=     1 RMS=6.64D-06 Max=3.92D-05 NDo=     1
 LinEq1:  Iter=  5 NonCon=     1 RMS=4.74D-07 Max=4.02D-06 NDo=     1
 LinEq1:  Iter=  6 NonCon=     1 RMS=8.59D-08 Max=6.49D-07 NDo=     1
 LinEq1:  Iter=  7 NonCon=     1 RMS=1.87D-08 Max=1.05D-07 NDo=     1
 LinEq1:  Iter=  8 NonCon=     1 RMS=2.13D-09 Max=1.62D-08 NDo=     1
 LinEq1:  Iter=  9 NonCon=     1 RMS=1.01D-10 Max=4.99D-10 NDo=     1
 LinEq1:  Iter= 10 NonCon=     0 RMS=9.31D-12 Max=7.34D-11 NDo=     1
 Linear equations converged to 1.000D-10 1.000D-09 after    10 iterations.
 End of Minotr F.D. properties file   721 does not exist.
 End of Minotr F.D. properties file   722 does not exist.
 End of Minotr F.D. properties file   788 does not exist.

 **********************************************************************

            Population analysis using the SCF density.

 **********************************************************************

 Alpha  occ. eigenvalues --  -19.72894  -1.14765  -0.59786  -0.47315  -0.39551
 Alpha virt. eigenvalues --    0.05759   0.13338   0.41590   0.46387   0.48506
 Alpha virt. eigenvalues --    0.49452   0.60472   0.62710   0.70214   0.75109
 Alpha virt. eigenvalues --    0.83097   1.07628   1.24102   1.29518   1.82133
 Alpha virt. eigenvalues --    1.86330   1.88891   1.94301   1.99234   2.19973
 Alpha virt. eigenvalues --    2.51353   2.70229   2.85984   3.15978   3.26332
 Alpha virt. eigenvalues --    3.37014   3.40004   3.42663   3.47312   3.65731
 Alpha virt. eigenvalues --    3.70378   3.76418   3.76694   4.08527   4.18309
 Alpha virt. eigenvalues --    4.20061   4.27353   4.69258   4.75959   4.90409
 Alpha virt. eigenvalues --    5.09413   5.75772   6.30702   6.51518   6.61225
 Alpha virt. eigenvalues --    6.63351   6.71464   6.80459   6.93491   7.02485
 Alpha virt. eigenvalues --    7.54806   7.56152   7.74794  44.09784
          Condensed to atoms (all electrons):
               1          2          3
     1  H    0.478132  -0.026560   0.324587
     2  H   -0.026560   0.484887   0.332420
     3  O    0.324587   0.332420   7.776088
 Mulliken charges:
               1
     1  H    0.223841
     2  H    0.209254
     3  O   -0.433095
 Sum of Mulliken charges =   0.00000
 Mulliken charges with hydrogens summed into heavy atoms:
               1
     3  O    0.000000
 Electronic spatial extent (au):  <R**2>=             19.6598
 Charge=              0.0000 electrons
 Dipole moment (field-independent basis, Debye):
    X=              0.0000    Y=             -0.0193    Z=             -2.0408  Tot=              2.0409
 Quadrupole moment (field-independent basis, Debye-Ang):
   XX=             -7.5013   YY=             -4.3745   ZZ=             -6.1563
   XY=              0.0000   XZ=              0.0000   YZ=             -0.0782
 Traceless Quadrupole moment (field-independent basis, Debye-Ang):
   XX=             -1.4907   YY=              1.6362   ZZ=             -0.1456
   XY=              0.0000   XZ=              0.0000   YZ=             -0.0782
 Octapole moment (field-independent basis, Debye-Ang**2):
  XXX=              0.0000  YYY=             -0.0546  ZZZ=             -1.1316  XYY=              0.0000
  XXY=             -0.0200  XXZ=             -0.2586  XZZ=              0.0000  YZZ=              0.0549
  YYZ=             -1.3454  XYZ=              0.0000
 Hexadecapole moment (field-independent basis, Debye-Ang**3):
 XXXX=             -6.2465 YYYY=             -6.2922 ZZZZ=             -7.1320 XXXY=              0.0000
 XXXZ=              0.0000 YYYX=              0.0000 YYYZ=              0.0166 ZZZX=              0.0000
 ZZZY=              0.0017 XXYY=             -2.3993 XXZZ=             -2.2949 YYZZ=             -1.8382
 XXYZ=              0.0243 YYXZ=              0.0000 ZZXY=              0.0000
 N-N= 9.037436638676D+00 E-N=-1.989198162428D+02  KE= 7.608556863317D+01
 ******************************Gaussian NBO Version 3.1******************************
             N A T U R A L   A T O M I C   O R B I T A L   A N D
          N A T U R A L   B O N D   O R B I T A L   A N A L Y S I S
 ******************************Gaussian NBO Version 3.1******************************
       /RESON  / : Allow strongly delocalized NBO set

 Analyzing the SCF density

 Job title: xPert                                                           

 Storage needed:     10799 in NPA ( 536870849 available)


 NATURAL POPULATIONS:  Natural atomic orbital occupancies 
                                                          
   NAO  Atom  No  lang   Type(AO)    Occupancy      Energy
 ----------------------------------------------------------
     1    H    1  S      Val( 1S)     0.53667       0.13029
     2    H    1  S      Ryd( 2S)     0.00148       0.77998
     3    H    1  S      Ryd( 3S)     0.00008       1.79527
     4    H    1  px     Ryd( 2p)     0.00204       1.58768
     5    H    1  px     Ryd( 3p)     0.00000       3.49280
     6    H    1  py     Ryd( 2p)     0.00036       2.30527
     7    H    1  py     Ryd( 3p)     0.00051       3.79457
     8    H    1  pz     Ryd( 2p)     0.00130       2.05484
     9    H    1  pz     Ryd( 3p)     0.00057       3.69571
    10    H    1  dxy    Ryd( 3d)     0.00002       3.79797
    11    H    1  dxz    Ryd( 3d)     0.00000       3.68340
    12    H    1  dyz    Ryd( 3d)     0.00003       4.13503
    13    H    1  dx2y2  Ryd( 3d)     0.00010       3.89215
    14    H    1  dz2    Ryd( 3d)     0.00001       3.91573

    15    H    2  S      Val( 1S)     0.53787       0.16942
    16    H    2  S      Ryd( 2S)     0.00151       0.80853
    17    H    2  S      Ryd( 3S)     0.00009       1.72693
    18    H    2  px     Ryd( 2p)     0.00212       1.66602
    19    H    2  px     Ryd( 3p)     0.00000       3.49785
    20    H    2  py     Ryd( 2p)     0.00031       2.39144
    21    H    2  py     Ryd( 3p)     0.00064       3.78975
    22    H    2  pz     Ryd( 2p)     0.00136       2.07289
    23    H    2  pz     Ryd( 3p)     0.00058       3.68017
    24    H    2  dxy    Ryd( 3d)     0.00002       3.84613
    25    H    2  dxz    Ryd( 3d)     0.00000       3.67802
    26    H    2  dyz    Ryd( 3d)     0.00003       4.17819
    27    H    2  dx2y2  Ryd( 3d)     0.00011       3.94683
    28    H    2  dz2    Ryd( 3d)     0.00002       3.90939

    29    O    3  S      Cor( 1S)     1.99987     -19.51284
    30    O    3  S      Val( 2S)     1.75790      -1.06955
    31    O    3  S      Ryd( 3S)     0.00057       2.16459
    32    O    3  S      Ryd( 4S)     0.00000       3.98697
    33    O    3  S      Ryd( 5S)     0.00000      41.95639
    34    O    3  px     Val( 2p)     1.99198      -0.38960
    35    O    3  px     Ryd( 3p)     0.00114       0.59967
    36    O    3  px     Ryd( 4p)     0.00000       2.69409
    37    O    3  py     Val( 2p)     1.45418      -0.30162
    38    O    3  py     Ryd( 3p)     0.00256       0.67398
    39    O    3  py     Ryd( 4p)     0.00001       3.31647
    40    O    3  pz     Val( 2p)     1.69512      -0.34581
    41    O    3  pz     Ryd( 3p)     0.00026       0.64492
    42    O    3  pz     Ryd( 4p)     0.00017       3.06434
    43    O    3  dxy    Ryd( 3d)     0.00000       2.28848
    44    O    3  dxy    Ryd( 4d)     0.00000       6.50781
    45    O    3  dxz    Ryd( 3d)     0.00243       2.17184
    46    O    3  dxz    Ryd( 4d)     0.00003       6.49631
    47    O    3  dyz    Ryd( 3d)     0.00194       3.42081
    48    O    3  dyz    Ryd( 4d)     0.00017       7.05644
    49    O    3  dx2y2  Ryd( 3d)     0.00084       2.63923
    50    O    3  dx2y2  Ryd( 4d)     0.00001       6.67443
    51    O    3  dz2    Ryd( 3d)     0.00257       2.46240
    52    O    3  dz2    Ryd( 4d)     0.00003       6.60695
    53    O    3  f(0)   Ryd( 4f)     0.00002       5.91713
    54    O    3  f(C1)  Ryd( 4f)     0.00003       5.57416
    55    O    3  f(S1)  Ryd( 4f)     0.00002       6.37983
    56    O    3  f(C2)  Ryd( 4f)     0.00007       6.26680
    57    O    3  f(S2)  Ryd( 4f)     0.00000       6.03273
    58    O    3  f(C3)  Ryd( 4f)     0.00017       5.82171
    59    O    3  f(S3)  Ryd( 4f)     0.00004       5.83683

 WARNING:  Population inversion found on atom  H    1
           Population inversion found on atom  H    2


 Summary of Natural Population Analysis:                  
                                                          
                                       Natural Population 
                Natural  -----------------------------------------------
    Atom  No    Charge         Core      Valence    Rydberg      Total
 -----------------------------------------------------------------------
      H    1    0.45682      0.00000     0.53667    0.00652     0.54318
      H    2    0.45533      0.00000     0.53787    0.00680     0.54467
      O    3   -0.91215      1.99987     6.89918    0.01310     8.91215
 =======================================================================
   * Total *    0.00000      1.99987     7.97372    0.02642    10.00000

                                 Natural Population      
 --------------------------------------------------------
   Core                       1.99987 ( 99.9933% of   2)
   Valence                    7.97372 ( 99.6715% of   8)
   Natural Minimal Basis      9.97358 ( 99.7358% of  10)
   Natural Rydberg Basis      0.02642 (  0.2642% of  10)
 --------------------------------------------------------

    Atom  No          Natural Electron Configuration
 ----------------------------------------------------------------------------
      H    1            1S( 0.54)
      H    2            1S( 0.54)
      O    3      [core]2S( 1.76)2p( 5.14)3d( 0.01)


 NBO analysis skipped by request.
   1 Symmetry operations used in ECPInt.
 ECPInt:  NShTT=     276 NPrTT=     694 LenC2=     277 LenP2D=     680.
 LDataN:  DoStor=T MaxTD1= 7 Len=  274
 Calling FoFJK, ICntrl=  10002127 FMM=F ISym2X=0 I1Cent= 0 IOpClX= 0 NMat=1 NMatS=1 NMatT=0.
 -------------------------------------------------------------------
 Center     Atomic                   Forces (Hartrees/Bohr)
 Number     Number              X              Y              Z
 -------------------------------------------------------------------
      1        1           0.000000000   -0.019624017    0.019694030
      2        1           0.000000000   -0.002822406    0.001036734
      3        8           0.000000000    0.022446424   -0.020730765
 -------------------------------------------------------------------
 Cartesian Forces:  Max     0.022446424 RMS     0.013806618

 GradGradGradGradGradGradGradGradGradGradGradGradGradGradGradGradGradGrad
 Berny optimization.
 Search for a local minimum.
 Step number   1 out of a maximum of    2
 All quantities printed in internal units (Hartrees-Bohrs-Radians)
 Second derivative matrix not updated -- first step.
 The second derivative matrix:
                          X1        Y1        Z1        X2        Y2
           X1           1.00000
           Y1           0.00000   0.30879
           Z1           0.00000  -0.22086   0.23107
           X2           0.00000   0.00000   0.00000   1.00000
           Y2           0.00000  -0.01856  -0.02211   0.00000   0.36664
           Z2           0.00000   0.02399   0.02858   0.00000   0.24592
           X3           0.00000   0.00000   0.00000   0.00000   0.00000
           Y3           0.00000  -0.29023   0.24296   0.00000  -0.34809
           Z3           0.00000   0.19687  -0.25965   0.00000  -0.22381
                          Z2        X3        Y3        Z3
           Z2           0.23893
           X3           0.00000   1.00000
           Y3          -0.26991   0.00000   0.63832
           Z3          -0.26751   0.00000   0.02694   0.52716
 ITU=  0
     Eigenvalues ---    0.13884   0.81142   0.95277
 Angle between quadratic step and forces=  29.61 degrees.
 Linear search not attempted -- first point.
 TrRot=  0.000000  0.006772 -0.009547  0.000000  0.000000  0.000000
 Variable       Old X    -DE/DX   Delta X   Delta X   Delta X     New X
                                 (Linear)    (Quad)   (Total)
    X1        0.00000   0.00000   0.00000   0.00000   0.00000   0.00000
    Y1        1.43349  -0.01962   0.00000  -0.01956  -0.01279   1.42070
    Z1       -0.98153   0.01969   0.00000   0.03495   0.02541  -0.95612
    X2        0.00000   0.00000   0.00000   0.00000   0.00000   0.00000
    Y2       -1.43349  -0.00282   0.00000  -0.01187  -0.00509  -1.43858
    Z2       -0.88704   0.00104   0.00000   0.00935  -0.00019  -0.88724
    X3        0.00000   0.00000   0.00000   0.00000   0.00000   0.00000
    Y3        0.00000   0.02245   0.00000   0.01111   0.01788   0.01788
    Z3        0.22176  -0.02073   0.00000  -0.01566  -0.02521   0.19655
         Item               Value     Threshold  Converged?
 Maximum Force            0.022446     0.000450     NO 
 RMS     Force            0.013807     0.000300     NO 
 Maximum Displacement     0.025406     0.001800     NO 
 RMS     Displacement     0.014105     0.001200     NO 
 Predicted change in Energy=-8.447940D-04
 GradGradGradGradGradGradGradGradGradGradGradGradGradGradGradGradGradGrad

 1\1\GINC-CCWSGE0515\Force\RB2PLYP-FC\def2TZVPP\H2O1\ALLOUCHE\16-May-20
 19\0\\# B2PLYP/def2tzvpp nosym scf(tight) force Pop=NPA\\xPert\\0,1\H,
 0.,0.758568,-0.519403\H,0.,-0.758568,-0.469403\O,0.,0.,0.117351\\Versi
 on=EM64L-G09RevD.01\HF=-76.3282153\MP2=-76.4123478\RMSD=3.987e-09\RMSF
 =1.381e-02\Dipole=0.,-0.0077922,-0.7826852\PG=CS [SG(H2O1)]\\@


 At the touch of love, everyone becomves a poet.
                                -- Plato
 Job cpu time:       0 days  0 hours  0 minutes 17.3 seconds.
 File lengths (MBytes):  RWF=      5 Int=      0 D2E=      0 Chk=      1 Scr=      1
 Normal termination of Gaussian 09 at Thu May 16 09:04:40 2019.
