 Entering Gaussian System, Link 0=/pbs/throng/ilm/sl6/allouche/Gaussian09D/g09/g09
 Initial command:
 /pbs/throng/ilm/sl6/allouche/Gaussian09D/g09/l1.exe "/scratch/6332008.1.long/Gau-19550.inp" -scrdir="/scratch/6332008.1.long/"
 Entering Link 1 = /pbs/throng/ilm/sl6/allouche/Gaussian09D/g09/l1.exe PID=     19555.
  
 Copyright (c) 1988,1990,1992,1993,1995,1998,2003,2009,2013,
            Gaussian, Inc.  All Rights Reserved.
  
 This is part of the Gaussian(R) 09 program.  It is based on
 the Gaussian(R) 03 system (copyright 2003, Gaussian, Inc.),
 the Gaussian(R) 98 system (copyright 1998, Gaussian, Inc.),
 the Gaussian(R) 94 system (copyright 1995, Gaussian, Inc.),
 the Gaussian 92(TM) system (copyright 1992, Gaussian, Inc.),
 the Gaussian 90(TM) system (copyright 1990, Gaussian, Inc.),
 the Gaussian 88(TM) system (copyright 1988, Gaussian, Inc.),
 the Gaussian 86(TM) system (copyright 1986, Carnegie Mellon
 University), and the Gaussian 82(TM) system (copyright 1983,
 Carnegie Mellon University). Gaussian is a federally registered
 trademark of Gaussian, Inc.
  
 This software contains proprietary and confidential information,
 including trade secrets, belonging to Gaussian, Inc.
  
 This software is provided under written license and may be
 used, copied, transmitted, or stored only in accord with that
 written license.
  
 The following legend is applicable only to US Government
 contracts under FAR:
  
                    RESTRICTED RIGHTS LEGEND
  
 Use, reproduction and disclosure by the US Government is
 subject to restrictions as set forth in subparagraphs (a)
 and (c) of the Commercial Computer Software - Restricted
 Rights clause in FAR 52.227-19.
  
 Gaussian, Inc.
 340 Quinnipiac St., Bldg. 40, Wallingford CT 06492
  
  
 ---------------------------------------------------------------
 Warning -- This program may not be used in any manner that
 competes with the business of Gaussian, Inc. or will provide
 assistance to any competitor of Gaussian, Inc.  The licensee
 of this program is prohibited from giving any competitor of
 Gaussian, Inc. access to this program.  By using this program,
 the user acknowledges that Gaussian, Inc. is engaged in the
 business of creating and licensing software in the field of
 computational chemistry and represents and warrants to the
 licensee that it is not a competitor of Gaussian, Inc. and that
 it will not use this program in any manner prohibited above.
 ---------------------------------------------------------------
  

 Cite this work as:
 Gaussian 09, Revision D.01,
 M. J. Frisch, G. W. Trucks, H. B. Schlegel, G. E. Scuseria, 
 M. A. Robb, J. R. Cheeseman, G. Scalmani, V. Barone, B. Mennucci, 
 G. A. Petersson, H. Nakatsuji, M. Caricato, X. Li, H. P. Hratchian, 
 A. F. Izmaylov, J. Bloino, G. Zheng, J. L. Sonnenberg, M. Hada, 
 M. Ehara, K. Toyota, R. Fukuda, J. Hasegawa, M. Ishida, T. Nakajima, 
 Y. Honda, O. Kitao, H. Nakai, T. Vreven, J. A. Montgomery, Jr., 
 J. E. Peralta, F. Ogliaro, M. Bearpark, J. J. Heyd, E. Brothers, 
 K. N. Kudin, V. N. Staroverov, T. Keith, R. Kobayashi, J. Normand, 
 K. Raghavachari, A. Rendell, J. C. Burant, S. S. Iyengar, J. Tomasi, 
 M. Cossi, N. Rega, J. M. Millam, M. Klene, J. E. Knox, J. B. Cross, 
 V. Bakken, C. Adamo, J. Jaramillo, R. Gomperts, R. E. Stratmann, 
 O. Yazyev, A. J. Austin, R. Cammi, C. Pomelli, J. W. Ochterski, 
 R. L. Martin, K. Morokuma, V. G. Zakrzewski, G. A. Voth, 
 P. Salvador, J. J. Dannenberg, S. Dapprich, A. D. Daniels, 
 O. Farkas, J. B. Foresman, J. V. Ortiz, J. Cioslowski, 
 and D. J. Fox, Gaussian, Inc., Wallingford CT, 2013.
 
 ******************************************
 Gaussian 09:  EM64L-G09RevD.01 24-Apr-2013
                16-May-2019 
 ******************************************
 -------------------------------------------------
 # B2PLYP/def2tzvpp nosym scf(tight) force Pop=NPA
 -------------------------------------------------
 1/10=7,30=1,38=1/1,3;
 2/12=2,15=1,17=6,18=5,40=1/2;
 3/5=44,7=202,11=9,16=1,25=1,30=1,71=1,74=-47/1,2,3;
 4//1;
 5/5=2,32=2,38=5/2;
 8/6=4,10=1/1;
 9/15=2,16=-3/6;
 10/5=1,31=1/2;
 6/7=2,8=2,9=2,10=2,18=1,40=-1/1,7;
 7/12=2,29=1,30=1/1,2,3,16;
 1/10=7,30=1/3;
 99//99;
 -----
 xPert
 -----
 Symbolic Z-matrix:
 Charge =  0 Multiplicity = 1
 H                     0.        0.75857  -0.4694 
 H                     0.       -0.75857  -0.4694 
 O                     0.        0.        0.06735 
 

 GradGradGradGradGradGradGradGradGradGradGradGradGradGradGradGradGradGrad
 Berny optimization.
 Initialization pass.
 Trust Radius=3.00D-01 FncErr=1.00D-07 GrdErr=1.00D-07
 Number of steps in this run=      2 maximum allowed number of steps=      2.
 GradGradGradGradGradGradGradGradGradGradGradGradGradGradGradGradGradGrad

                          Input orientation:                          
 ---------------------------------------------------------------------
 Center     Atomic      Atomic             Coordinates (Angstroms)
 Number     Number       Type             X           Y           Z
 ---------------------------------------------------------------------
      1          1           0        0.000000    0.758568   -0.469403
      2          1           0        0.000000   -0.758568   -0.469403
      3          8           0        0.000000    0.000000    0.067351
 ---------------------------------------------------------------------
                    Distance matrix (angstroms):
                    1          2          3
     1  H    0.000000
     2  H    1.517136   0.000000
     3  O    0.929263   0.929263   0.000000
 Symmetry turned off by external request.
 Stoichiometry    H2O
 Framework group  C2V[C2(O),SGV(H2)]
 Deg. of freedom     2
 Full point group                 C2V     NOp   4
 Rotational constants (GHZ):    979.9341245    435.7255441    301.6136852
 Standard basis: def2TZVPP (5D, 7F)
    59 basis functions,    85 primitive gaussians,    66 cartesian basis functions
     5 alpha electrons        5 beta electrons
       nuclear repulsion energy         9.4601417578 Hartrees.
 NAtoms=    3 NActive=    3 NUniq=    3 SFac= 1.00D+00 NAtFMM=   60 NAOKFM=F Big=F
 Integral buffers will be    131072 words long.
 Regular integral format.
 Two-electron integral symmetry is turned off.
 One-electron integrals computed using PRISM.
   1 Symmetry operations used in ECPInt.
 ECPInt:  NShTT=     276 NPrTT=     694 LenC2=     277 LenP2D=     681.
 LDataN:  DoStor=T MaxTD1= 6 Len=  172
 NBasis=    59 RedAO= T EigKep=  1.98D-03  NBF=    59
 NBsUse=    59 1.00D-06 EigRej= -1.00D+00 NBFU=    59
 ExpMin= 1.03D-01 ExpMax= 2.70D+04 ExpMxC= 9.22D+02 IAcc=1 IRadAn=         1 AccDes= 0.00D+00
 Harris functional with IExCor=  419 and IRadAn=       1 diagonalized for initial guess.
 HarFok:  IExCor=  419 AccDes= 0.00D+00 IRadAn=         1 IDoV= 1 UseB2=F ITyADJ=14
 ICtDFT=  3500011 ScaDFX=  1.000000  1.000000  1.000000  1.000000
 FoFCou: FMM=F IPFlag=           0 FMFlag=      100000 FMFlg1=           0
         NFxFlg=           0 DoJE=T BraDBF=F KetDBF=T FulRan=T
         wScrn=  0.000000 ICntrl=     500 IOpCl=  0 I1Cent=   200000004 NGrid=           0
         NMat0=    1 NMatS0=      1 NMatT0=    0 NMatD0=    1 NMtDS0=    0 NMtDT0=    0
 Symmetry not used in FoFCou.
 Keep R1 ints in memory in canonical form, NReq=3557649.
 Requested convergence on RMS density matrix=1.00D-08 within 128 cycles.
 Requested convergence on MAX density matrix=1.00D-06.
 Requested convergence on             energy=1.00D-06.
 No special actions if energy rises.
 Integral accuracy reduced to 1.0D-05 until final iterations.
 Initial convergence to 1.0D-05 achieved.  Increase integral accuracy.
 SCF Done:  E(RB2PLYP) =  -76.3287562233     A.U. after   10 cycles
            NFock= 10  Conv=0.36D-08     -V/T= 2.0011
 DoSCS=T DFT=T ScalE2(SS,OS)=  0.270000  0.270000
 ExpMin= 1.03D-01 ExpMax= 2.70D+04 ExpMxC= 9.22D+02 IAcc=3 IRadAn=         5 AccDes= 0.00D+00
 HarFok:  IExCor=  205 AccDes= 0.00D+00 IRadAn=         5 IDoV=-2 UseB2=F ITyADJ=14
 ICtDFT= 12500011 ScaDFX=  1.000000  1.000000  1.000000  1.000000
 Range of M.O.s used for correlation:     2    59
 NBasis=    59 NAE=     5 NBE=     5 NFC=     1 NFV=     0
 NROrb=     58 NOA=     4 NOB=     4 NVA=    54 NVB=    54
 DoSCS=T DFT=T ScalE2(SS,OS)=  0.270000  0.270000
 Fully direct method using O(ONN) memory.
 JobTyp=1 Pass  1:  I=   2 to   5 NPSUse=  1 ParTrn=F ParDer=F DoDerP=T.
 Spin components of T(2) and E(2):
     alpha-alpha T2 =       0.1117665958D-01 E2=     -0.1009700493D-01
     alpha-beta  T2 =       0.6449647156D-01 E2=     -0.6225588102D-01
     beta-beta   T2 =       0.1117665958D-01 E2=     -0.1009700493D-01
 E2(B2PLYP) =    -0.8244989088D-01 E(B2PLYP) =    -0.76411206114193D+02
          IDoAtm=111
          Differentiating once with respect to electric field.
                with respect to dipole field.
          Differentiating once with respect to nuclear coordinates.
 Keep R1 ints in memory in canonical form, NReq=3533351.
          There are     1 degrees of freedom in the 1st order CPHF.  IDoFFX=0 NUNeed=     1.
 LinEq1:  Iter=  0 NonCon=     1 RMS=1.77D-03 Max=1.44D-02 NDo=     1
 AX will form     1 AO Fock derivatives at one time.
 LinEq1:  Iter=  1 NonCon=     1 RMS=1.73D-04 Max=1.34D-03 NDo=     1
 LinEq1:  Iter=  2 NonCon=     1 RMS=4.34D-05 Max=3.44D-04 NDo=     1
 LinEq1:  Iter=  3 NonCon=     1 RMS=1.91D-05 Max=1.04D-04 NDo=     1
 LinEq1:  Iter=  4 NonCon=     1 RMS=4.60D-06 Max=2.79D-05 NDo=     1
 LinEq1:  Iter=  5 NonCon=     1 RMS=2.67D-07 Max=2.07D-06 NDo=     1
 LinEq1:  Iter=  6 NonCon=     1 RMS=3.90D-08 Max=4.02D-07 NDo=     1
 LinEq1:  Iter=  7 NonCon=     1 RMS=3.20D-09 Max=2.63D-08 NDo=     1
 LinEq1:  Iter=  8 NonCon=     1 RMS=1.81D-10 Max=1.78D-09 NDo=     1
 LinEq1:  Iter=  9 NonCon=     0 RMS=1.41D-11 Max=6.60D-11 NDo=     1
 Linear equations converged to 1.000D-10 1.000D-09 after     9 iterations.
 End of Minotr F.D. properties file   721 does not exist.
 End of Minotr F.D. properties file   722 does not exist.
 End of Minotr F.D. properties file   788 does not exist.

 **********************************************************************

            Population analysis using the SCF density.

 **********************************************************************

 Alpha  occ. eigenvalues --  -19.71862  -1.16388  -0.63208  -0.46546  -0.39752
 Alpha virt. eigenvalues --    0.06491   0.13856   0.44302   0.45633   0.49250
 Alpha virt. eigenvalues --    0.49298   0.61338   0.62469   0.74555   0.75215
 Alpha virt. eigenvalues --    0.86813   1.08077   1.25244   1.33846   1.76877
 Alpha virt. eigenvalues --    1.84839   1.86047   1.91927   1.97265   2.28121
 Alpha virt. eigenvalues --    2.50589   2.71564   2.86912   3.22422   3.31925
 Alpha virt. eigenvalues --    3.37362   3.41439   3.49303   3.56005   3.70231
 Alpha virt. eigenvalues --    3.70427   3.77092   3.77368   4.19611   4.28417
 Alpha virt. eigenvalues --    4.28547   4.30386   4.83217   4.85244   4.97224
 Alpha virt. eigenvalues --    5.13971   5.80743   6.29502   6.62912   6.66536
 Alpha virt. eigenvalues --    6.75386   6.79023   6.93985   7.01921   7.18482
 Alpha virt. eigenvalues --    7.62279   7.64279   7.97226  44.27388
          Condensed to atoms (all electrons):
               1          2          3
     1  H    0.470953  -0.031874   0.358164
     2  H   -0.031874   0.470953   0.358164
     3  O    0.358164   0.358164   7.689186
 Mulliken charges:
               1
     1  H    0.202757
     2  H    0.202757
     3  O   -0.405514
 Sum of Mulliken charges =   0.00000
 Mulliken charges with hydrogens summed into heavy atoms:
               1
     3  O    0.000000
 Electronic spatial extent (au):  <R**2>=             19.0286
 Charge=              0.0000 electrons
 Dipole moment (field-independent basis, Debye):
    X=              0.0000    Y=              0.0000    Z=             -1.9011  Tot=              1.9011
 Quadrupole moment (field-independent basis, Debye-Ang):
   XX=             -7.4096   YY=             -4.1642   ZZ=             -6.2015
   XY=              0.0000   XZ=              0.0000   YZ=              0.0000
 Traceless Quadrupole moment (field-independent basis, Debye-Ang):
   XX=             -1.4845   YY=              1.7609   ZZ=             -0.2764
   XY=              0.0000   XZ=              0.0000   YZ=              0.0000
 Octapole moment (field-independent basis, Debye-Ang**2):
  XXX=              0.0000  YYY=              0.0000  ZZZ=             -0.3915  XYY=              0.0000
  XXY=              0.0000  XXZ=             -0.0136  XZZ=              0.0000  YZZ=              0.0000
  YYZ=             -1.1001  XYZ=              0.0000
 Hexadecapole moment (field-independent basis, Debye-Ang**3):
 XXXX=             -6.1360 YYYY=             -5.7296 ZZZZ=             -6.6479 XXXY=              0.0000
 XXXZ=              0.0000 YYYX=              0.0000 YYYZ=              0.0000 ZZZX=              0.0000
 ZZZY=              0.0000 XXYY=             -2.2994 XXZZ=             -2.1773 YYZZ=             -1.7496
 XXYZ=              0.0000 YYXZ=              0.0000 ZZXY=              0.0000
 N-N= 9.460141757791D+00 E-N=-1.998412271180D+02  KE= 7.624371563304D+01
 ******************************Gaussian NBO Version 3.1******************************
             N A T U R A L   A T O M I C   O R B I T A L   A N D
          N A T U R A L   B O N D   O R B I T A L   A N A L Y S I S
 ******************************Gaussian NBO Version 3.1******************************
       /RESON  / : Allow strongly delocalized NBO set

 Analyzing the SCF density

 Job title: xPert                                                           

 Storage needed:     10799 in NPA ( 536870849 available)


 NATURAL POPULATIONS:  Natural atomic orbital occupancies 
                                                          
   NAO  Atom  No  lang   Type(AO)    Occupancy      Energy
 ----------------------------------------------------------
     1    H    1  S      Val( 1S)     0.53561       0.20640
     2    H    1  S      Ryd( 2S)     0.00129       0.88392
     3    H    1  S      Ryd( 3S)     0.00012       1.60603
     4    H    1  px     Ryd( 2p)     0.00194       1.79616
     5    H    1  px     Ryd( 3p)     0.00000       3.46029
     6    H    1  py     Ryd( 2p)     0.00021       2.54742
     7    H    1  py     Ryd( 3p)     0.00074       3.71361
     8    H    1  pz     Ryd( 2p)     0.00128       2.14529
     9    H    1  pz     Ryd( 3p)     0.00051       3.63146
    10    H    1  dxy    Ryd( 3d)     0.00001       3.89660
    11    H    1  dxz    Ryd( 3d)     0.00001       3.67034
    12    H    1  dyz    Ryd( 3d)     0.00003       4.21345
    13    H    1  dx2y2  Ryd( 3d)     0.00010       3.98644
    14    H    1  dz2    Ryd( 3d)     0.00003       3.90449

    15    H    2  S      Val( 1S)     0.53561       0.20640
    16    H    2  S      Ryd( 2S)     0.00129       0.88392
    17    H    2  S      Ryd( 3S)     0.00012       1.60603
    18    H    2  px     Ryd( 2p)     0.00194       1.79616
    19    H    2  px     Ryd( 3p)     0.00000       3.46029
    20    H    2  py     Ryd( 2p)     0.00021       2.54742
    21    H    2  py     Ryd( 3p)     0.00074       3.71361
    22    H    2  pz     Ryd( 2p)     0.00128       2.14529
    23    H    2  pz     Ryd( 3p)     0.00051       3.63146
    24    H    2  dxy    Ryd( 3d)     0.00001       3.89660
    25    H    2  dxz    Ryd( 3d)     0.00001       3.67034
    26    H    2  dyz    Ryd( 3d)     0.00003       4.21345
    27    H    2  dx2y2  Ryd( 3d)     0.00010       3.98644
    28    H    2  dz2    Ryd( 3d)     0.00003       3.90449

    29    O    3  S      Cor( 1S)     1.99984     -19.48975
    30    O    3  S      Val( 2S)     1.71539      -1.04742
    31    O    3  S      Ryd( 3S)     0.00049       2.31170
    32    O    3  S      Ryd( 5S)     0.00000      29.64256
    33    O    3  S      Ryd( 4S)     0.00000      16.36401
    34    O    3  px     Val( 2p)     1.99191      -0.39137
    35    O    3  px     Ryd( 3p)     0.00145       0.62412
    36    O    3  px     Ryd( 4p)     0.00000       2.65898
    37    O    3  py     Val( 2p)     1.45071      -0.29739
    38    O    3  py     Ryd( 3p)     0.00352       0.72446
    39    O    3  py     Ryd( 4p)     0.00001       3.41201
    40    O    3  pz     Val( 2p)     1.74409      -0.35322
    41    O    3  pz     Ryd( 3p)     0.00045       0.66696
    42    O    3  pz     Ryd( 4p)     0.00013       3.02571
    43    O    3  dxy    Ryd( 3d)     0.00000       2.41786
    44    O    3  dxy    Ryd( 4d)     0.00000       6.51825
    45    O    3  dxz    Ryd( 3d)     0.00243       2.18969
    46    O    3  dxz    Ryd( 4d)     0.00003       6.47461
    47    O    3  dyz    Ryd( 3d)     0.00168       3.63914
    48    O    3  dyz    Ryd( 4d)     0.00019       7.05706
    49    O    3  dx2y2  Ryd( 3d)     0.00094       2.92105
    50    O    3  dx2y2  Ryd( 4d)     0.00001       6.72121
    51    O    3  dz2    Ryd( 3d)     0.00248       2.49362
    52    O    3  dz2    Ryd( 4d)     0.00004       6.58299
    53    O    3  f(0)   Ryd( 4f)     0.00001       5.94906
    54    O    3  f(C1)  Ryd( 4f)     0.00002       5.56959
    55    O    3  f(S1)  Ryd( 4f)     0.00003       6.43849
    56    O    3  f(C2)  Ryd( 4f)     0.00009       6.37517
    57    O    3  f(S2)  Ryd( 4f)     0.00000       6.06637
    58    O    3  f(C3)  Ryd( 4f)     0.00024       5.95164
    59    O    3  f(S3)  Ryd( 4f)     0.00004       5.98527

 WARNING:  Population inversion found on atom  H    1
           Population inversion found on atom  H    2


 Summary of Natural Population Analysis:                  
                                                          
                                       Natural Population 
                Natural  -----------------------------------------------
    Atom  No    Charge         Core      Valence    Rydberg      Total
 -----------------------------------------------------------------------
      H    1    0.45811      0.00000     0.53561    0.00628     0.54189
      H    2    0.45811      0.00000     0.53561    0.00628     0.54189
      O    3   -0.91621      1.99984     6.90211    0.01427     8.91621
 =======================================================================
   * Total *    0.00000      1.99984     7.97333    0.02683    10.00000

                                 Natural Population      
 --------------------------------------------------------
   Core                       1.99984 ( 99.9918% of   2)
   Valence                    7.97333 ( 99.6667% of   8)
   Natural Minimal Basis      9.97317 ( 99.7317% of  10)
   Natural Rydberg Basis      0.02683 (  0.2683% of  10)
 --------------------------------------------------------

    Atom  No          Natural Electron Configuration
 ----------------------------------------------------------------------------
      H    1            1S( 0.54)
      H    2            1S( 0.54)
      O    3      [core]2S( 1.72)2p( 5.19)3p( 0.01)3d( 0.01)


 NBO analysis skipped by request.
   1 Symmetry operations used in ECPInt.
 ECPInt:  NShTT=     276 NPrTT=     694 LenC2=     277 LenP2D=     681.
 LDataN:  DoStor=T MaxTD1= 7 Len=  274
 Calling FoFJK, ICntrl=  10002127 FMM=F ISym2X=0 I1Cent= 0 IOpClX= 0 NMat=1 NMatS=1 NMatT=0.
 -------------------------------------------------------------------
 Center     Atomic                   Forces (Hartrees/Bohr)
 Number     Number              X              Y              Z
 -------------------------------------------------------------------
      1        1           0.000000000    0.021950779   -0.022299949
      2        1           0.000000000   -0.021950779   -0.022299949
      3        8           0.000000000    0.000000000    0.044599897
 -------------------------------------------------------------------
 Cartesian Forces:  Max     0.044599897 RMS     0.020942778

 GradGradGradGradGradGradGradGradGradGradGradGradGradGradGradGradGradGrad
 Berny optimization.
 Search for a local minimum.
 Step number   1 out of a maximum of    2
 All quantities printed in internal units (Hartrees-Bohrs-Radians)
 Second derivative matrix not updated -- first step.
 The second derivative matrix:
                          X1        Y1        Z1        X2        Y2
           X1           1.00000
           Y1           0.00000   0.43477
           Z1           0.00000  -0.27092   0.24359
           X2           0.00000   0.00000   0.00000   1.00000
           Y2           0.00000  -0.01731  -0.02446   0.00000   0.43477
           Z2           0.00000   0.02446   0.03457   0.00000   0.27092
           X3           0.00000   0.00000   0.00000   0.00000   0.00000
           Y3           0.00000  -0.41746   0.29539   0.00000  -0.41746
           Z3           0.00000   0.24646  -0.27816   0.00000  -0.24646
                          Z2        X3        Y3        Z3
           Z2           0.24359
           X3           0.00000   1.00000
           Y3          -0.29539   0.00000   0.83491
           Z3          -0.27816   0.00000   0.00000   0.55632
 ITU=  0
     Eigenvalues ---    0.16137   0.93920   1.16230
 Angle between quadratic step and forces=  31.98 degrees.
 Linear search not attempted -- first point.
 TrRot=  0.000000  0.000000  0.018141  0.000000  0.000000  0.000000
 Variable       Old X    -DE/DX   Delta X   Delta X   Delta X     New X
                                 (Linear)    (Quad)   (Total)
    X1        0.00000   0.00000   0.00000   0.00000   0.00000   0.00000
    Y1        1.43349   0.02195   0.00000   0.00938   0.00938   1.44287
    Z1       -0.88704  -0.02230   0.00000  -0.04209  -0.02395  -0.91100
    X2        0.00000   0.00000   0.00000   0.00000   0.00000   0.00000
    Y2       -1.43349  -0.02195   0.00000  -0.00938  -0.00938  -1.44287
    Z2       -0.88704  -0.02230   0.00000  -0.04209  -0.02395  -0.91100
    X3        0.00000   0.00000   0.00000   0.00000   0.00000   0.00000
    Y3        0.00000   0.00000   0.00000   0.00000   0.00000   0.00000
    Z3        0.12727   0.04460   0.00000   0.02976   0.04790   0.17518
         Item               Value     Threshold  Converged?
 Maximum Force            0.044600     0.000450     NO 
 RMS     Force            0.020943     0.000300     NO 
 Maximum Displacement     0.047905     0.001800     NO 
 RMS     Displacement     0.020051     0.001200     NO 
 Predicted change in Energy=-1.808337D-03
 GradGradGradGradGradGradGradGradGradGradGradGradGradGradGradGradGradGrad

 1\1\GINC-CCWSGE0607\Force\RB2PLYP-FC\def2TZVPP\H2O1\ALLOUCHE\16-May-20
 19\0\\# B2PLYP/def2tzvpp nosym scf(tight) force Pop=NPA\\xPert\\0,1\H,
 0.,0.758568,-0.469403\H,0.,-0.758568,-0.469403\O,0.,0.,0.067351\\Versi
 on=EM64L-G09RevD.01\HF=-76.3287562\MP2=-76.4112061\RMSD=3.590e-09\RMSF
 =2.094e-02\Dipole=0.,0.,-0.7326518\PG=C02V [C2(O1),SGV(H2)]\\@


 WHEN ALL ELSE FAILS, LOOK AT THE SCHRODINGER EQUATION.
     -- RUSSELL T. PACK, APRIL 1978
 Job cpu time:       0 days  0 hours  0 minutes 14.1 seconds.
 File lengths (MBytes):  RWF=      5 Int=      0 D2E=      0 Chk=      1 Scr=      1
 Normal termination of Gaussian 09 at Thu May 16 09:04:43 2019.
