 Entering Gaussian System, Link 0=/pbs/throng/ilm/sl6/allouche/Gaussian09D/g09/g09
 Initial command:
 /pbs/throng/ilm/sl6/allouche/Gaussian09D/g09/l1.exe "/scratch/6332011.1.long/Gau-97106.inp" -scrdir="/scratch/6332011.1.long/"
 Entering Link 1 = /pbs/throng/ilm/sl6/allouche/Gaussian09D/g09/l1.exe PID=     97107.
  
 Copyright (c) 1988,1990,1992,1993,1995,1998,2003,2009,2013,
            Gaussian, Inc.  All Rights Reserved.
  
 This is part of the Gaussian(R) 09 program.  It is based on
 the Gaussian(R) 03 system (copyright 2003, Gaussian, Inc.),
 the Gaussian(R) 98 system (copyright 1998, Gaussian, Inc.),
 the Gaussian(R) 94 system (copyright 1995, Gaussian, Inc.),
 the Gaussian 92(TM) system (copyright 1992, Gaussian, Inc.),
 the Gaussian 90(TM) system (copyright 1990, Gaussian, Inc.),
 the Gaussian 88(TM) system (copyright 1988, Gaussian, Inc.),
 the Gaussian 86(TM) system (copyright 1986, Carnegie Mellon
 University), and the Gaussian 82(TM) system (copyright 1983,
 Carnegie Mellon University). Gaussian is a federally registered
 trademark of Gaussian, Inc.
  
 This software contains proprietary and confidential information,
 including trade secrets, belonging to Gaussian, Inc.
  
 This software is provided under written license and may be
 used, copied, transmitted, or stored only in accord with that
 written license.
  
 The following legend is applicable only to US Government
 contracts under FAR:
  
                    RESTRICTED RIGHTS LEGEND
  
 Use, reproduction and disclosure by the US Government is
 subject to restrictions as set forth in subparagraphs (a)
 and (c) of the Commercial Computer Software - Restricted
 Rights clause in FAR 52.227-19.
  
 Gaussian, Inc.
 340 Quinnipiac St., Bldg. 40, Wallingford CT 06492
  
  
 ---------------------------------------------------------------
 Warning -- This program may not be used in any manner that
 competes with the business of Gaussian, Inc. or will provide
 assistance to any competitor of Gaussian, Inc.  The licensee
 of this program is prohibited from giving any competitor of
 Gaussian, Inc. access to this program.  By using this program,
 the user acknowledges that Gaussian, Inc. is engaged in the
 business of creating and licensing software in the field of
 computational chemistry and represents and warrants to the
 licensee that it is not a competitor of Gaussian, Inc. and that
 it will not use this program in any manner prohibited above.
 ---------------------------------------------------------------
  

 Cite this work as:
 Gaussian 09, Revision D.01,
 M. J. Frisch, G. W. Trucks, H. B. Schlegel, G. E. Scuseria, 
 M. A. Robb, J. R. Cheeseman, G. Scalmani, V. Barone, B. Mennucci, 
 G. A. Petersson, H. Nakatsuji, M. Caricato, X. Li, H. P. Hratchian, 
 A. F. Izmaylov, J. Bloino, G. Zheng, J. L. Sonnenberg, M. Hada, 
 M. Ehara, K. Toyota, R. Fukuda, J. Hasegawa, M. Ishida, T. Nakajima, 
 Y. Honda, O. Kitao, H. Nakai, T. Vreven, J. A. Montgomery, Jr., 
 J. E. Peralta, F. Ogliaro, M. Bearpark, J. J. Heyd, E. Brothers, 
 K. N. Kudin, V. N. Staroverov, T. Keith, R. Kobayashi, J. Normand, 
 K. Raghavachari, A. Rendell, J. C. Burant, S. S. Iyengar, J. Tomasi, 
 M. Cossi, N. Rega, J. M. Millam, M. Klene, J. E. Knox, J. B. Cross, 
 V. Bakken, C. Adamo, J. Jaramillo, R. Gomperts, R. E. Stratmann, 
 O. Yazyev, A. J. Austin, R. Cammi, C. Pomelli, J. W. Ochterski, 
 R. L. Martin, K. Morokuma, V. G. Zakrzewski, G. A. Voth, 
 P. Salvador, J. J. Dannenberg, S. Dapprich, A. D. Daniels, 
 O. Farkas, J. B. Foresman, J. V. Ortiz, J. Cioslowski, 
 and D. J. Fox, Gaussian, Inc., Wallingford CT, 2013.
 
 ******************************************
 Gaussian 09:  EM64L-G09RevD.01 24-Apr-2013
                16-May-2019 
 ******************************************
 -------------------------------------------------
 # B2PLYP/def2tzvpp nosym scf(tight) force Pop=NPA
 -------------------------------------------------
 1/10=7,30=1,38=1/1,3;
 2/12=2,15=1,17=6,18=5,40=1/2;
 3/5=44,7=202,11=9,16=1,25=1,30=1,71=1,74=-47/1,2,3;
 4//1;
 5/5=2,32=2,38=5/2;
 8/6=4,10=1/1;
 9/15=2,16=-3/6;
 10/5=1,31=1/2;
 6/7=2,8=2,9=2,10=2,18=1,40=-1/1,7;
 7/12=2,29=1,30=1/1,2,3,16;
 1/10=7,30=1/3;
 99//99;
 -----
 xPert
 -----
 Symbolic Z-matrix:
 Charge =  0 Multiplicity = 1
 H                     0.        0.75857  -0.4694 
 H                     0.       -0.75857  -0.4694 
 O                     0.05      0.        0.11735 
 

 GradGradGradGradGradGradGradGradGradGradGradGradGradGradGradGradGradGrad
 Berny optimization.
 Initialization pass.
 Trust Radius=3.00D-01 FncErr=1.00D-07 GrdErr=1.00D-07
 Number of steps in this run=      2 maximum allowed number of steps=      2.
 GradGradGradGradGradGradGradGradGradGradGradGradGradGradGradGradGradGrad

                          Input orientation:                          
 ---------------------------------------------------------------------
 Center     Atomic      Atomic             Coordinates (Angstroms)
 Number     Number       Type             X           Y           Z
 ---------------------------------------------------------------------
      1          1           0        0.000000    0.758568   -0.469403
      2          1           0        0.000000   -0.758568   -0.469403
      3          8           0        0.050000    0.000000    0.117351
 ---------------------------------------------------------------------
                    Distance matrix (angstroms):
                    1          2          3
     1  H    0.000000
     2  H    1.517136   0.000000
     3  O    0.960315   0.960315   0.000000
 Symmetry turned off by external request.
 Stoichiometry    H2O
 Framework group  C2V[C2(O),SGV(H2)]
 Deg. of freedom     2
 Full point group                 C2V     NOp   4
 Rotational constants (GHZ):    814.1287603    435.7255441    283.8224390
 Standard basis: def2TZVPP (5D, 7F)
    59 basis functions,    85 primitive gaussians,    66 cartesian basis functions
     5 alpha electrons        5 beta electrons
       nuclear repulsion energy         9.1655235970 Hartrees.
 NAtoms=    3 NActive=    3 NUniq=    3 SFac= 1.00D+00 NAtFMM=   60 NAOKFM=F Big=F
 Integral buffers will be    131072 words long.
 Regular integral format.
 Two-electron integral symmetry is turned off.
 One-electron integrals computed using PRISM.
   1 Symmetry operations used in ECPInt.
 ECPInt:  NShTT=     276 NPrTT=     694 LenC2=     277 LenP2D=     681.
 LDataN:  DoStor=T MaxTD1= 6 Len=  172
 NBasis=    59 RedAO= T EigKep=  2.27D-03  NBF=    59
 NBsUse=    59 1.00D-06 EigRej= -1.00D+00 NBFU=    59
 ExpMin= 1.03D-01 ExpMax= 2.70D+04 ExpMxC= 9.22D+02 IAcc=1 IRadAn=         1 AccDes= 0.00D+00
 Harris functional with IExCor=  419 and IRadAn=       1 diagonalized for initial guess.
 HarFok:  IExCor=  419 AccDes= 0.00D+00 IRadAn=         1 IDoV= 1 UseB2=F ITyADJ=14
 ICtDFT=  3500011 ScaDFX=  1.000000  1.000000  1.000000  1.000000
 FoFCou: FMM=F IPFlag=           0 FMFlag=      100000 FMFlg1=           0
         NFxFlg=           0 DoJE=T BraDBF=F KetDBF=T FulRan=T
         wScrn=  0.000000 ICntrl=     500 IOpCl=  0 I1Cent=   200000004 NGrid=           0
         NMat0=    1 NMatS0=      1 NMatT0=    0 NMatD0=    1 NMtDS0=    0 NMtDT0=    0
 Symmetry not used in FoFCou.
 Keep R1 ints in memory in canonical form, NReq=3557649.
 Requested convergence on RMS density matrix=1.00D-08 within 128 cycles.
 Requested convergence on MAX density matrix=1.00D-06.
 Requested convergence on             energy=1.00D-06.
 No special actions if energy rises.
 Integral accuracy reduced to 1.0D-05 until final iterations.
 Initial convergence to 1.0D-05 achieved.  Increase integral accuracy.
 SCF Done:  E(RB2PLYP) =  -76.3297071261     A.U. after   10 cycles
            NFock= 10  Conv=0.37D-08     -V/T= 2.0026
 DoSCS=T DFT=T ScalE2(SS,OS)=  0.270000  0.270000
 ExpMin= 1.03D-01 ExpMax= 2.70D+04 ExpMxC= 9.22D+02 IAcc=3 IRadAn=         5 AccDes= 0.00D+00
 HarFok:  IExCor=  205 AccDes= 0.00D+00 IRadAn=         5 IDoV=-2 UseB2=F ITyADJ=14
 ICtDFT= 12500011 ScaDFX=  1.000000  1.000000  1.000000  1.000000
 Range of M.O.s used for correlation:     2    59
 NBasis=    59 NAE=     5 NBE=     5 NFC=     1 NFV=     0
 NROrb=     58 NOA=     4 NOB=     4 NVA=    54 NVB=    54
 DoSCS=T DFT=T ScalE2(SS,OS)=  0.270000  0.270000
 Fully direct method using O(ONN) memory.
 JobTyp=1 Pass  1:  I=   2 to   5 NPSUse=  1 ParTrn=F ParDer=F DoDerP=T.
 Spin components of T(2) and E(2):
     alpha-alpha T2 =       0.1164683427D-01 E2=     -0.1022616989D-01
     alpha-beta  T2 =       0.6764165130D-01 E2=     -0.6312937722D-01
     beta-beta   T2 =       0.1164683427D-01 E2=     -0.1022616989D-01
 E2(B2PLYP) =    -0.8358171700D-01 E(B2PLYP) =    -0.76413288843127D+02
          IDoAtm=111
          Differentiating once with respect to electric field.
                with respect to dipole field.
          Differentiating once with respect to nuclear coordinates.
 Keep R1 ints in memory in canonical form, NReq=3533351.
          There are     1 degrees of freedom in the 1st order CPHF.  IDoFFX=0 NUNeed=     1.
 LinEq1:  Iter=  0 NonCon=     1 RMS=1.90D-03 Max=1.55D-02 NDo=     1
 AX will form     1 AO Fock derivatives at one time.
 LinEq1:  Iter=  1 NonCon=     1 RMS=2.03D-04 Max=1.62D-03 NDo=     1
 LinEq1:  Iter=  2 NonCon=     1 RMS=5.53D-05 Max=4.60D-04 NDo=     1
 LinEq1:  Iter=  3 NonCon=     1 RMS=2.47D-05 Max=1.34D-04 NDo=     1
 LinEq1:  Iter=  4 NonCon=     1 RMS=5.91D-06 Max=3.55D-05 NDo=     1
 LinEq1:  Iter=  5 NonCon=     1 RMS=3.85D-07 Max=3.30D-06 NDo=     1
 LinEq1:  Iter=  6 NonCon=     1 RMS=5.48D-08 Max=4.98D-07 NDo=     1
 LinEq1:  Iter=  7 NonCon=     1 RMS=4.21D-09 Max=3.33D-08 NDo=     1
 LinEq1:  Iter=  8 NonCon=     1 RMS=1.84D-10 Max=1.48D-09 NDo=     1
 LinEq1:  Iter=  9 NonCon=     0 RMS=1.34D-11 Max=1.01D-10 NDo=     1
 Linear equations converged to 1.000D-10 1.000D-09 after     9 iterations.
 End of Minotr F.D. properties file   721 does not exist.
 End of Minotr F.D. properties file   722 does not exist.
 End of Minotr F.D. properties file   788 does not exist.

 **********************************************************************

            Population analysis using the SCF density.

 **********************************************************************

 Alpha  occ. eigenvalues --  -19.72580  -1.15259  -0.60808  -0.47106  -0.39610
 Alpha virt. eigenvalues --    0.06003   0.13526   0.42465   0.46166   0.48782
 Alpha virt. eigenvalues --    0.49416   0.60696   0.62594   0.71609   0.74969
 Alpha virt. eigenvalues --    0.84160   1.07850   1.24521   1.30586   1.80410
 Alpha virt. eigenvalues --    1.86193   1.89684   1.91814   1.98910   2.21579
 Alpha virt. eigenvalues --    2.51077   2.70705   2.86297   3.17727   3.27983
 Alpha virt. eigenvalues --    3.39244   3.40947   3.43121   3.49551   3.66659
 Alpha virt. eigenvalues --    3.70136   3.76754   3.77044   4.11817   4.22031
 Alpha virt. eigenvalues --    4.22299   4.28167   4.73855   4.77545   4.92311
 Alpha virt. eigenvalues --    5.10526   5.77647   6.31455   6.59457   6.62140
 Alpha virt. eigenvalues --    6.70848   6.72303   6.78687   6.95561   7.06706
 Alpha virt. eigenvalues --    7.56936   7.59032   7.80961  44.14654
          Condensed to atoms (all electrons):
               1          2          3
     1  H    0.478461  -0.028121   0.336914
     2  H   -0.028121   0.478461   0.336914
     3  O    0.336914   0.336914   7.751663
 Mulliken charges:
               1
     1  H    0.212746
     2  H    0.212746
     3  O   -0.425492
 Sum of Mulliken charges =   0.00000
 Mulliken charges with hydrogens summed into heavy atoms:
               1
     3  O    0.000000
 Electronic spatial extent (au):  <R**2>=             19.5519
 Charge=              0.0000 electrons
 Dipole moment (field-independent basis, Debye):
    X=             -0.1698    Y=              0.0000    Z=             -1.9929  Tot=              2.0001
 Quadrupole moment (field-independent basis, Debye-Ang):
   XX=             -7.4773   YY=             -4.3088   ZZ=             -6.2423
   XY=              0.0000   XZ=              0.0251   YZ=              0.0000
 Traceless Quadrupole moment (field-independent basis, Debye-Ang):
   XX=             -1.4678   YY=              1.7007   ZZ=             -0.2329
   XY=              0.0000   XZ=              0.0251   YZ=              0.0000
 Octapole moment (field-independent basis, Debye-Ang**2):
  XXX=             -0.9736  YYY=              0.0000  ZZZ=             -1.1921  XYY=             -0.2860
  XXY=              0.0000  XXZ=             -0.2978  XZZ=             -0.3000  YZZ=              0.0000
  YYZ=             -1.3339  XYZ=              0.0000
 Hexadecapole moment (field-independent basis, Debye-Ang**3):
 XXXX=             -6.3032 YYYY=             -6.1141 ZZZZ=             -7.0244 XXXY=              0.0000
 XXXZ=             -0.0843 YYYX=              0.0000 YYYZ=              0.0000 ZZZX=             -0.0685
 ZZZY=              0.0000 XXYY=             -2.3797 XXZZ=             -2.2732 YYZZ=             -1.8517
 XXYZ=              0.0000 YYXZ=             -0.0094 ZZXY=              0.0000
 N-N= 9.165523596984D+00 E-N=-1.992000073264D+02  KE= 7.613198617650D+01
 ******************************Gaussian NBO Version 3.1******************************
             N A T U R A L   A T O M I C   O R B I T A L   A N D
          N A T U R A L   B O N D   O R B I T A L   A N A L Y S I S
 ******************************Gaussian NBO Version 3.1******************************
       /RESON  / : Allow strongly delocalized NBO set

 Analyzing the SCF density

 Job title: xPert                                                           

 Storage needed:     10799 in NPA ( 536870849 available)


 NATURAL POPULATIONS:  Natural atomic orbital occupancies 
                                                          
   NAO  Atom  No  lang   Type(AO)    Occupancy      Energy
 ----------------------------------------------------------
     1    H    1  S      Val( 1S)     0.53658       0.16643
     2    H    1  S      Ryd( 2S)     0.00144       0.81101
     3    H    1  S      Ryd( 3S)     0.00010       1.72534
     4    H    1  px     Ryd( 2p)     0.00204       1.67906
     5    H    1  px     Ryd( 3p)     0.00001       3.48784
     6    H    1  py     Ryd( 2p)     0.00030       2.40021
     7    H    1  py     Ryd( 3p)     0.00062       3.77177
     8    H    1  pz     Ryd( 2p)     0.00133       2.08052
     9    H    1  pz     Ryd( 3p)     0.00056       3.66975
    10    H    1  dxy    Ryd( 3d)     0.00001       3.84751
    11    H    1  dxz    Ryd( 3d)     0.00001       3.67912
    12    H    1  dyz    Ryd( 3d)     0.00003       4.17305
    13    H    1  dx2y2  Ryd( 3d)     0.00010       3.94001
    14    H    1  dz2    Ryd( 3d)     0.00002       3.90913

    15    H    2  S      Val( 1S)     0.53658       0.16643
    16    H    2  S      Ryd( 2S)     0.00144       0.81101
    17    H    2  S      Ryd( 3S)     0.00010       1.72534
    18    H    2  px     Ryd( 2p)     0.00204       1.67906
    19    H    2  px     Ryd( 3p)     0.00001       3.48784
    20    H    2  py     Ryd( 2p)     0.00030       2.40021
    21    H    2  py     Ryd( 3p)     0.00062       3.77177
    22    H    2  pz     Ryd( 2p)     0.00133       2.08052
    23    H    2  pz     Ryd( 3p)     0.00056       3.66975
    24    H    2  dxy    Ryd( 3d)     0.00001       3.84751
    25    H    2  dxz    Ryd( 3d)     0.00001       3.67912
    26    H    2  dyz    Ryd( 3d)     0.00003       4.17305
    27    H    2  dx2y2  Ryd( 3d)     0.00010       3.94001
    28    H    2  dz2    Ryd( 3d)     0.00002       3.90913

    29    O    3  S      Cor( 1S)     1.99986     -19.50557
    30    O    3  S      Val( 2S)     1.74557      -1.06380
    31    O    3  S      Ryd( 3S)     0.00054       2.21409
    32    O    3  S      Ryd( 5S)     0.00000      42.88684
    33    O    3  S      Ryd( 4S)     0.00000       3.06455
    34    O    3  px     Val( 2p)     1.98990      -0.38979
    35    O    3  px     Ryd( 3p)     0.00123       0.60723
    36    O    3  px     Ryd( 4p)     0.00000       2.68706
    37    O    3  py     Val( 2p)     1.45258      -0.30054
    38    O    3  py     Ryd( 3p)     0.00284       0.68884
    39    O    3  py     Ryd( 4p)     0.00001       3.33972
    40    O    3  pz     Val( 2p)     1.71236      -0.34833
    41    O    3  pz     Ryd( 3p)     0.00032       0.65185
    42    O    3  pz     Ryd( 4p)     0.00016       3.04974
    43    O    3  dxy    Ryd( 3d)     0.00001       2.33486
    44    O    3  dxy    Ryd( 4d)     0.00000       6.51430
    45    O    3  dxz    Ryd( 3d)     0.00246       2.18430
    46    O    3  dxz    Ryd( 4d)     0.00003       6.49355
    47    O    3  dyz    Ryd( 3d)     0.00185       3.48336
    48    O    3  dyz    Ryd( 4d)     0.00018       7.05775
    49    O    3  dx2y2  Ryd( 3d)     0.00088       2.71425
    50    O    3  dx2y2  Ryd( 4d)     0.00001       6.68654
    51    O    3  dz2    Ryd( 3d)     0.00254       2.46842
    52    O    3  dz2    Ryd( 4d)     0.00003       6.59627
    53    O    3  f(0)   Ryd( 4f)     0.00002       5.92498
    54    O    3  f(C1)  Ryd( 4f)     0.00003       5.57664
    55    O    3  f(S1)  Ryd( 4f)     0.00002       6.39526
    56    O    3  f(C2)  Ryd( 4f)     0.00008       6.29917
    57    O    3  f(S2)  Ryd( 4f)     0.00000       6.05117
    58    O    3  f(C3)  Ryd( 4f)     0.00019       5.86319
    59    O    3  f(S3)  Ryd( 4f)     0.00004       5.88012

 WARNING:  Population inversion found on atom  H    1
           Population inversion found on atom  H    2


 Summary of Natural Population Analysis:                  
                                                          
                                       Natural Population 
                Natural  -----------------------------------------------
    Atom  No    Charge         Core      Valence    Rydberg      Total
 -----------------------------------------------------------------------
      H    1    0.45686      0.00000     0.53658    0.00656     0.54314
      H    2    0.45686      0.00000     0.53658    0.00656     0.54314
      O    3   -0.91373      1.99986     6.90041    0.01346     8.91373
 =======================================================================
   * Total *    0.00000      1.99986     7.97356    0.02658    10.00000

                                 Natural Population      
 --------------------------------------------------------
   Core                       1.99986 ( 99.9929% of   2)
   Valence                    7.97356 ( 99.6696% of   8)
   Natural Minimal Basis      9.97342 ( 99.7342% of  10)
   Natural Rydberg Basis      0.02658 (  0.2658% of  10)
 --------------------------------------------------------

    Atom  No          Natural Electron Configuration
 ----------------------------------------------------------------------------
      H    1            1S( 0.54)
      H    2            1S( 0.54)
      O    3      [core]2S( 1.75)2p( 5.15)3d( 0.01)


 NBO analysis skipped by request.
   1 Symmetry operations used in ECPInt.
 ECPInt:  NShTT=     276 NPrTT=     694 LenC2=     277 LenP2D=     681.
 LDataN:  DoStor=T MaxTD1= 7 Len=  274
 Calling FoFJK, ICntrl=  10002127 FMM=F ISym2X=0 I1Cent= 0 IOpClX= 0 NMat=1 NMatS=1 NMatT=0.
 -------------------------------------------------------------------
 Center     Atomic                   Forces (Hartrees/Bohr)
 Number     Number              X              Y              Z
 -------------------------------------------------------------------
      1        1           0.000078810   -0.000814739    0.000919942
      2        1           0.000078810    0.000814739    0.000919942
      3        8          -0.000157619    0.000000000   -0.001839885
 -------------------------------------------------------------------
 Cartesian Forces:  Max     0.001839885 RMS     0.000846078

 GradGradGradGradGradGradGradGradGradGradGradGradGradGradGradGradGradGrad
 Berny optimization.
 Search for a local minimum.
 Step number   1 out of a maximum of    2
 All quantities printed in internal units (Hartrees-Bohrs-Radians)
 Second derivative matrix not updated -- first step.
 The second derivative matrix:
                          X1        Y1        Z1        X2        Y2
           X1           0.00172
           Y1          -0.02079   0.36398
           Z1           0.02019  -0.24396   0.23694
           X2           0.00022   0.00200   0.00256   0.00172
           Y2          -0.00200  -0.01827  -0.02345   0.02079   0.36398
           Z2           0.00256   0.02345   0.03010   0.02019   0.24396
           X3          -0.00194   0.01879  -0.02276  -0.00194  -0.01879
           Y3           0.02279  -0.34571   0.26741  -0.02279  -0.34571
           Z3          -0.02276   0.22051  -0.26703  -0.02276  -0.22051
                          Z2        X3        Y3        Z3
           Z2           0.23694
           X3          -0.02276   0.00388
           Y3          -0.26741   0.00000   0.69142
           Z3          -0.26703   0.04551   0.00000   0.53407
 ITU=  0
     Eigenvalues ---    0.14526   0.86407   0.99553
 Angle between quadratic step and forces=  33.09 degrees.
 Linear search not attempted -- first point.
 TrRot= -0.000069  0.000000 -0.000807  0.000000  0.000000  0.000000
 Variable       Old X    -DE/DX   Delta X   Delta X   Delta X     New X
                                 (Linear)    (Quad)   (Total)
    X1        0.00000   0.00008   0.00000   0.00016   0.00009   0.00009
    Y1        1.43349  -0.00081   0.00000  -0.00027  -0.00027   1.43321
    Z1       -0.88704   0.00092   0.00000   0.00187   0.00106  -0.88598
    X2        0.00000   0.00008   0.00000   0.00016   0.00009   0.00009
    Y2       -1.43349   0.00081   0.00000   0.00027   0.00027  -1.43321
    Z2       -0.88704   0.00092   0.00000   0.00187   0.00106  -0.88598
    X3        0.09449  -0.00016   0.00000  -0.00011  -0.00018   0.09430
    Y3        0.00000   0.00000   0.00000   0.00000   0.00000   0.00000
    Z3        0.22176  -0.00184   0.00000  -0.00132  -0.00213   0.21963
         Item               Value     Threshold  Converged?
 Maximum Force            0.001840     0.000450     NO 
 RMS     Force            0.000846     0.000300     NO 
 Maximum Displacement     0.002130     0.001800     NO 
 RMS     Displacement     0.000882     0.001200     YES
 Predicted change in Energy=-3.184610D-06
 GradGradGradGradGradGradGradGradGradGradGradGradGradGradGradGradGradGrad

 1\1\GINC-CCWSGE0295\Force\RB2PLYP-FC\def2TZVPP\H2O1\ALLOUCHE\16-May-20
 19\0\\# B2PLYP/def2tzvpp nosym scf(tight) force Pop=NPA\\xPert\\0,1\H,
 0.,0.758568,-0.469403\H,0.,-0.758568,-0.469403\O,0.05,0.,0.117351\\Ver
 sion=EM64L-G09RevD.01\HF=-76.3297071\MP2=-76.4132888\RMSD=3.694e-09\RM
 SF=8.461e-04\Dipole=-0.0652332,0.,-0.7655023\PG=C02V [C2(O1),SGV(H2)]\
 \@


 THERE IS NOTHING NOBLE IN BEING SUPERIOR TO SOME OTHER MAN.
 TRUE NOBILITY IS BEING SUPERIOR TO YOUR FORMER SELF.

                                                   -- HINDU PROVERB
 Job cpu time:       0 days  0 hours  0 minutes 15.4 seconds.
 File lengths (MBytes):  RWF=      5 Int=      0 D2E=      0 Chk=      1 Scr=      1
 Normal termination of Gaussian 09 at Thu May 16 09:04:53 2019.
