 Entering Gaussian System, Link 0=/pbs/throng/ilm/sl6/allouche/Gaussian09D/g09/g09
 Initial command:
 /pbs/throng/ilm/sl6/allouche/Gaussian09D/g09/l1.exe "/scratch/6332012.1.long/Gau-3489.inp" -scrdir="/scratch/6332012.1.long/"
 Entering Link 1 = /pbs/throng/ilm/sl6/allouche/Gaussian09D/g09/l1.exe PID=      3491.
  
 Copyright (c) 1988,1990,1992,1993,1995,1998,2003,2009,2013,
            Gaussian, Inc.  All Rights Reserved.
  
 This is part of the Gaussian(R) 09 program.  It is based on
 the Gaussian(R) 03 system (copyright 2003, Gaussian, Inc.),
 the Gaussian(R) 98 system (copyright 1998, Gaussian, Inc.),
 the Gaussian(R) 94 system (copyright 1995, Gaussian, Inc.),
 the Gaussian 92(TM) system (copyright 1992, Gaussian, Inc.),
 the Gaussian 90(TM) system (copyright 1990, Gaussian, Inc.),
 the Gaussian 88(TM) system (copyright 1988, Gaussian, Inc.),
 the Gaussian 86(TM) system (copyright 1986, Carnegie Mellon
 University), and the Gaussian 82(TM) system (copyright 1983,
 Carnegie Mellon University). Gaussian is a federally registered
 trademark of Gaussian, Inc.
  
 This software contains proprietary and confidential information,
 including trade secrets, belonging to Gaussian, Inc.
  
 This software is provided under written license and may be
 used, copied, transmitted, or stored only in accord with that
 written license.
  
 The following legend is applicable only to US Government
 contracts under FAR:
  
                    RESTRICTED RIGHTS LEGEND
  
 Use, reproduction and disclosure by the US Government is
 subject to restrictions as set forth in subparagraphs (a)
 and (c) of the Commercial Computer Software - Restricted
 Rights clause in FAR 52.227-19.
  
 Gaussian, Inc.
 340 Quinnipiac St., Bldg. 40, Wallingford CT 06492
  
  
 ---------------------------------------------------------------
 Warning -- This program may not be used in any manner that
 competes with the business of Gaussian, Inc. or will provide
 assistance to any competitor of Gaussian, Inc.  The licensee
 of this program is prohibited from giving any competitor of
 Gaussian, Inc. access to this program.  By using this program,
 the user acknowledges that Gaussian, Inc. is engaged in the
 business of creating and licensing software in the field of
 computational chemistry and represents and warrants to the
 licensee that it is not a competitor of Gaussian, Inc. and that
 it will not use this program in any manner prohibited above.
 ---------------------------------------------------------------
  

 Cite this work as:
 Gaussian 09, Revision D.01,
 M. J. Frisch, G. W. Trucks, H. B. Schlegel, G. E. Scuseria, 
 M. A. Robb, J. R. Cheeseman, G. Scalmani, V. Barone, B. Mennucci, 
 G. A. Petersson, H. Nakatsuji, M. Caricato, X. Li, H. P. Hratchian, 
 A. F. Izmaylov, J. Bloino, G. Zheng, J. L. Sonnenberg, M. Hada, 
 M. Ehara, K. Toyota, R. Fukuda, J. Hasegawa, M. Ishida, T. Nakajima, 
 Y. Honda, O. Kitao, H. Nakai, T. Vreven, J. A. Montgomery, Jr., 
 J. E. Peralta, F. Ogliaro, M. Bearpark, J. J. Heyd, E. Brothers, 
 K. N. Kudin, V. N. Staroverov, T. Keith, R. Kobayashi, J. Normand, 
 K. Raghavachari, A. Rendell, J. C. Burant, S. S. Iyengar, J. Tomasi, 
 M. Cossi, N. Rega, J. M. Millam, M. Klene, J. E. Knox, J. B. Cross, 
 V. Bakken, C. Adamo, J. Jaramillo, R. Gomperts, R. E. Stratmann, 
 O. Yazyev, A. J. Austin, R. Cammi, C. Pomelli, J. W. Ochterski, 
 R. L. Martin, K. Morokuma, V. G. Zakrzewski, G. A. Voth, 
 P. Salvador, J. J. Dannenberg, S. Dapprich, A. D. Daniels, 
 O. Farkas, J. B. Foresman, J. V. Ortiz, J. Cioslowski, 
 and D. J. Fox, Gaussian, Inc., Wallingford CT, 2013.
 
 ******************************************
 Gaussian 09:  EM64L-G09RevD.01 24-Apr-2013
                16-May-2019 
 ******************************************
 -------------------------------------------------
 # B2PLYP/def2tzvpp nosym scf(tight) force Pop=NPA
 -------------------------------------------------
 1/10=7,30=1,38=1/1,3;
 2/12=2,15=1,17=6,18=5,40=1/2;
 3/5=44,7=202,11=9,16=1,25=1,30=1,71=1,74=-47/1,2,3;
 4//1;
 5/5=2,32=2,38=5/2;
 8/6=4,10=1/1;
 9/15=2,16=-3/6;
 10/5=1,31=1/2;
 6/7=2,8=2,9=2,10=2,18=1,40=-1/1,7;
 7/12=2,29=1,30=1/1,2,3,16;
 1/10=7,30=1/3;
 99//99;
 -----
 xPert
 -----
 Symbolic Z-matrix:
 Charge =  0 Multiplicity = 1
 H                     0.        0.80857  -0.4694 
 H                     0.       -0.75857  -0.4694 
 O                     0.        0.        0.11735 
 

 GradGradGradGradGradGradGradGradGradGradGradGradGradGradGradGradGradGrad
 Berny optimization.
 Initialization pass.
 Trust Radius=3.00D-01 FncErr=1.00D-07 GrdErr=1.00D-07
 Number of steps in this run=      2 maximum allowed number of steps=      2.
 GradGradGradGradGradGradGradGradGradGradGradGradGradGradGradGradGradGrad

                          Input orientation:                          
 ---------------------------------------------------------------------
 Center     Atomic      Atomic             Coordinates (Angstroms)
 Number     Number       Type             X           Y           Z
 ---------------------------------------------------------------------
      1          1           0        0.000000    0.808568   -0.469403
      2          1           0        0.000000   -0.758568   -0.469403
      3          8           0        0.000000    0.000000    0.117351
 ---------------------------------------------------------------------
                    Distance matrix (angstroms):
                    1          2          3
     1  H    0.000000
     2  H    1.567136   0.000000
     3  O    0.999031   0.959013   0.000000
 Symmetry turned off by external request.
 Stoichiometry    H2O
 Framework group  CS[SG(H2O)]
 Deg. of freedom     3
 Full point group                 CS      NOp   2
 Rotational constants (GHZ):    821.5146696    407.6323980    272.4458314
 Standard basis: def2TZVPP (5D, 7F)
    59 basis functions,    85 primitive gaussians,    66 cartesian basis functions
     5 alpha electrons        5 beta electrons
       nuclear repulsion energy         8.9895455740 Hartrees.
 NAtoms=    3 NActive=    3 NUniq=    3 SFac= 1.00D+00 NAtFMM=   60 NAOKFM=F Big=F
 Integral buffers will be    131072 words long.
 Regular integral format.
 Two-electron integral symmetry is turned off.
 One-electron integrals computed using PRISM.
   1 Symmetry operations used in ECPInt.
 ECPInt:  NShTT=     276 NPrTT=     694 LenC2=     277 LenP2D=     680.
 LDataN:  DoStor=T MaxTD1= 6 Len=  172
 NBasis=    59 RedAO= T EigKep=  2.40D-03  NBF=    59
 NBsUse=    59 1.00D-06 EigRej= -1.00D+00 NBFU=    59
 ExpMin= 1.03D-01 ExpMax= 2.70D+04 ExpMxC= 9.22D+02 IAcc=1 IRadAn=         1 AccDes= 0.00D+00
 Harris functional with IExCor=  419 and IRadAn=       1 diagonalized for initial guess.
 HarFok:  IExCor=  419 AccDes= 0.00D+00 IRadAn=         1 IDoV= 1 UseB2=F ITyADJ=14
 ICtDFT=  3500011 ScaDFX=  1.000000  1.000000  1.000000  1.000000
 FoFCou: FMM=F IPFlag=           0 FMFlag=      100000 FMFlg1=           0
         NFxFlg=           0 DoJE=T BraDBF=F KetDBF=T FulRan=T
         wScrn=  0.000000 ICntrl=     500 IOpCl=  0 I1Cent=   200000004 NGrid=           0
         NMat0=    1 NMatS0=      1 NMatT0=    0 NMatD0=    1 NMtDS0=    0 NMtDT0=    0
 Symmetry not used in FoFCou.
 Keep R1 ints in memory in canonical form, NReq=3557635.
 Requested convergence on RMS density matrix=1.00D-08 within 128 cycles.
 Requested convergence on MAX density matrix=1.00D-06.
 Requested convergence on             energy=1.00D-06.
 No special actions if energy rises.
 Integral accuracy reduced to 1.0D-05 until final iterations.
 Initial convergence to 1.0D-05 achieved.  Increase integral accuracy.
 SCF Done:  E(RB2PLYP) =  -76.3276029943     A.U. after   10 cycles
            NFock= 10  Conv=0.44D-08     -V/T= 2.0035
 DoSCS=T DFT=T ScalE2(SS,OS)=  0.270000  0.270000
 ExpMin= 1.03D-01 ExpMax= 2.70D+04 ExpMxC= 9.22D+02 IAcc=3 IRadAn=         5 AccDes= 0.00D+00
 HarFok:  IExCor=  205 AccDes= 0.00D+00 IRadAn=         5 IDoV=-2 UseB2=F ITyADJ=14
 ICtDFT= 12500011 ScaDFX=  1.000000  1.000000  1.000000  1.000000
 Range of M.O.s used for correlation:     2    59
 NBasis=    59 NAE=     5 NBE=     5 NFC=     1 NFV=     0
 NROrb=     58 NOA=     4 NOB=     4 NVA=    54 NVB=    54
 DoSCS=T DFT=T ScalE2(SS,OS)=  0.270000  0.270000
 Fully direct method using O(ONN) memory.
 JobTyp=1 Pass  1:  I=   2 to   5 NPSUse=  1 ParTrn=F ParDer=F DoDerP=T.
 Spin components of T(2) and E(2):
     alpha-alpha T2 =       0.1188197235D-01 E2=     -0.1028283601D-01
     alpha-beta  T2 =       0.6937447268D-01 E2=     -0.6355855168D-01
     beta-beta   T2 =       0.1188197235D-01 E2=     -0.1028283601D-01
 E2(B2PLYP) =    -0.8412422370D-01 E(B2PLYP) =    -0.76411727218018D+02
          IDoAtm=111
          Differentiating once with respect to electric field.
                with respect to dipole field.
          Differentiating once with respect to nuclear coordinates.
 Keep R1 ints in memory in canonical form, NReq=3533351.
          There are     1 degrees of freedom in the 1st order CPHF.  IDoFFX=0 NUNeed=     1.
 LinEq1:  Iter=  0 NonCon=     1 RMS=1.95D-03 Max=1.60D-02 NDo=     1
 AX will form     1 AO Fock derivatives at one time.
 LinEq1:  Iter=  1 NonCon=     1 RMS=2.16D-04 Max=1.73D-03 NDo=     1
 LinEq1:  Iter=  2 NonCon=     1 RMS=6.52D-05 Max=5.42D-04 NDo=     1
 LinEq1:  Iter=  3 NonCon=     1 RMS=2.82D-05 Max=1.61D-04 NDo=     1
 LinEq1:  Iter=  4 NonCon=     1 RMS=6.44D-06 Max=4.15D-05 NDo=     1
 LinEq1:  Iter=  5 NonCon=     1 RMS=4.99D-07 Max=4.43D-06 NDo=     1
 LinEq1:  Iter=  6 NonCon=     1 RMS=1.02D-07 Max=7.04D-07 NDo=     1
 LinEq1:  Iter=  7 NonCon=     1 RMS=2.12D-08 Max=1.09D-07 NDo=     1
 LinEq1:  Iter=  8 NonCon=     1 RMS=2.16D-09 Max=1.58D-08 NDo=     1
 LinEq1:  Iter=  9 NonCon=     1 RMS=1.12D-10 Max=6.96D-10 NDo=     1
 LinEq1:  Iter= 10 NonCon=     0 RMS=1.21D-11 Max=9.73D-11 NDo=     1
 Linear equations converged to 1.000D-10 1.000D-09 after    10 iterations.
 End of Minotr F.D. properties file   721 does not exist.
 End of Minotr F.D. properties file   722 does not exist.
 End of Minotr F.D. properties file   788 does not exist.

 **********************************************************************

            Population analysis using the SCF density.

 **********************************************************************

 Alpha  occ. eigenvalues --  -19.72775  -1.14294  -0.60317  -0.46483  -0.39406
 Alpha virt. eigenvalues --    0.05750   0.13214   0.42003   0.46195   0.47392
 Alpha virt. eigenvalues --    0.49500   0.60275   0.62446   0.72520   0.74186
 Alpha virt. eigenvalues --    0.84668   1.06198   1.23029   1.30020   1.82329
 Alpha virt. eigenvalues --    1.84463   1.89519   1.93698   1.97905   2.24124
 Alpha virt. eigenvalues --    2.50596   2.70293   2.85928   3.19784   3.29030
 Alpha virt. eigenvalues --    3.35563   3.36572   3.41081   3.46790   3.64157
 Alpha virt. eigenvalues --    3.69680   3.75238   3.76942   4.09377   4.20472
 Alpha virt. eigenvalues --    4.20901   4.23414   4.66926   4.76606   4.90032
 Alpha virt. eigenvalues --    5.05399   5.73164   6.19543   6.50765   6.61796
 Alpha virt. eigenvalues --    6.70690   6.71080   6.79683   6.92041   7.05693
 Alpha virt. eigenvalues --    7.46944   7.53904   7.78549  44.09566
          Condensed to atoms (all electrons):
               1          2          3
     1  H    0.467408  -0.026310   0.325790
     2  H   -0.026310   0.475870   0.335863
     3  O    0.325790   0.335863   7.786035
 Mulliken charges:
               1
     1  H    0.233111
     2  H    0.214577
     3  O   -0.447688
 Sum of Mulliken charges =   0.00000
 Mulliken charges with hydrogens summed into heavy atoms:
               1
     3  O    0.000000
 Electronic spatial extent (au):  <R**2>=             19.7374
 Charge=              0.0000 electrons
 Dipole moment (field-independent basis, Debye):
    X=              0.0000    Y=              0.0615    Z=             -1.9815  Tot=              1.9824
 Quadrupole moment (field-independent basis, Debye-Ang):
   XX=             -7.5171   YY=             -4.1799   ZZ=             -6.3005
   XY=              0.0000   XZ=              0.0000   YZ=             -0.0313
 Traceless Quadrupole moment (field-independent basis, Debye-Ang):
   XX=             -1.5179   YY=              1.8192   ZZ=             -0.3013
   XY=              0.0000   XZ=              0.0000   YZ=             -0.0313
 Octapole moment (field-independent basis, Debye-Ang**2):
  XXX=              0.0000  YYY=              0.0493  ZZZ=             -1.1434  XYY=              0.0000
  XXY=             -0.0508  XXZ=             -0.2857  XZZ=              0.0000  YZZ=             -0.0284
  YYZ=             -1.3981  XYZ=              0.0000
 Hexadecapole moment (field-independent basis, Debye-Ang**3):
 XXXX=             -6.2755 YYYY=             -6.1883 ZZZZ=             -7.1467 XXXY=              0.0000
 XXXZ=              0.0000 YYYX=              0.0000 YYYZ=             -0.0334 ZZZX=              0.0000
 ZZZY=              0.0636 XXYY=             -2.4339 XXZZ=             -2.2907 YYZZ=             -1.8853
 XXYZ=              0.0242 YYXZ=              0.0000 ZZXY=              0.0000
 N-N= 8.989545574039D+00 E-N=-1.988237696356D+02  KE= 7.606439856917D+01
 ******************************Gaussian NBO Version 3.1******************************
             N A T U R A L   A T O M I C   O R B I T A L   A N D
          N A T U R A L   B O N D   O R B I T A L   A N A L Y S I S
 ******************************Gaussian NBO Version 3.1******************************
       /RESON  / : Allow strongly delocalized NBO set

 Analyzing the SCF density

 Job title: xPert                                                           

 Storage needed:     10799 in NPA ( 536870849 available)


 NATURAL POPULATIONS:  Natural atomic orbital occupancies 
                                                          
   NAO  Atom  No  lang   Type(AO)    Occupancy      Energy
 ----------------------------------------------------------
     1    H    1  S      Val( 1S)     0.53207       0.12438
     2    H    1  S      Ryd( 2S)     0.00151       0.76848
     3    H    1  S      Ryd( 3S)     0.00010       1.80947
     4    H    1  px     Ryd( 2p)     0.00192       1.59979
     5    H    1  px     Ryd( 3p)     0.00000       3.46218
     6    H    1  py     Ryd( 2p)     0.00027       2.39708
     7    H    1  py     Ryd( 3p)     0.00057       3.77332
     8    H    1  pz     Ryd( 2p)     0.00127       1.99838
     9    H    1  pz     Ryd( 3p)     0.00047       3.64894
    10    H    1  dxy    Ryd( 3d)     0.00001       3.83920
    11    H    1  dxz    Ryd( 3d)     0.00000       3.63265
    12    H    1  dyz    Ryd( 3d)     0.00002       4.11852
    13    H    1  dx2y2  Ryd( 3d)     0.00009       3.91012
    14    H    1  dz2    Ryd( 3d)     0.00002       3.86353

    15    H    2  S      Val( 1S)     0.53403       0.17371
    16    H    2  S      Ryd( 2S)     0.00155       0.80610
    17    H    2  S      Ryd( 3S)     0.00011       1.72145
    18    H    2  px     Ryd( 2p)     0.00202       1.70123
    19    H    2  px     Ryd( 3p)     0.00000       3.46609
    20    H    2  py     Ryd( 2p)     0.00028       2.42306
    21    H    2  py     Ryd( 3p)     0.00066       3.74230
    22    H    2  pz     Ryd( 2p)     0.00126       2.10449
    23    H    2  pz     Ryd( 3p)     0.00057       3.64957
    24    H    2  dxy    Ryd( 3d)     0.00001       3.84871
    25    H    2  dxz    Ryd( 3d)     0.00000       3.67865
    26    H    2  dyz    Ryd( 3d)     0.00003       4.16993
    27    H    2  dx2y2  Ryd( 3d)     0.00009       3.92766
    28    H    2  dz2    Ryd( 3d)     0.00002       3.91057

    29    O    3  S      Cor( 1S)     1.99986     -19.51743
    30    O    3  S      Val( 2S)     1.75428      -1.06399
    31    O    3  S      Ryd( 3S)     0.00048       2.37732
    32    O    3  S      Ryd( 4S)     0.00000      14.19482
    33    O    3  S      Ryd( 5S)     0.00000      31.53955
    34    O    3  px     Val( 2p)     1.99245      -0.38842
    35    O    3  px     Ryd( 3p)     0.00105       0.58929
    36    O    3  px     Ryd( 4p)     0.00000       2.70658
    37    O    3  py     Val( 2p)     1.45000      -0.30122
    38    O    3  py     Ryd( 3p)     0.00255       0.66977
    39    O    3  py     Ryd( 4p)     0.00001       3.34446
    40    O    3  pz     Val( 2p)     1.71183      -0.34744
    41    O    3  pz     Ryd( 3p)     0.00030       0.63079
    42    O    3  pz     Ryd( 4p)     0.00016       3.05284
    43    O    3  dxy    Ryd( 3d)     0.00000       2.30957
    44    O    3  dxy    Ryd( 4d)     0.00000       6.51746
    45    O    3  dxz    Ryd( 3d)     0.00228       2.14302
    46    O    3  dxz    Ryd( 4d)     0.00003       6.48734
    47    O    3  dyz    Ryd( 3d)     0.00189       3.37221
    48    O    3  dyz    Ryd( 4d)     0.00016       7.04189
    49    O    3  dx2y2  Ryd( 3d)     0.00091       2.69045
    50    O    3  dx2y2  Ryd( 4d)     0.00001       6.69955
    51    O    3  dz2    Ryd( 3d)     0.00237       2.43524
    52    O    3  dz2    Ryd( 4d)     0.00003       6.59964
    53    O    3  f(0)   Ryd( 4f)     0.00001       5.88802
    54    O    3  f(C1)  Ryd( 4f)     0.00002       5.54139
    55    O    3  f(S1)  Ryd( 4f)     0.00002       6.35188
    56    O    3  f(C2)  Ryd( 4f)     0.00008       6.26726
    57    O    3  f(S2)  Ryd( 4f)     0.00000       6.01469
    58    O    3  f(C3)  Ryd( 4f)     0.00019       5.85547
    59    O    3  f(S3)  Ryd( 4f)     0.00004       5.87202

 WARNING:  Population inversion found on atom  H    1
           Population inversion found on atom  H    2


 Summary of Natural Population Analysis:                  
                                                          
                                       Natural Population 
                Natural  -----------------------------------------------
    Atom  No    Charge         Core      Valence    Rydberg      Total
 -----------------------------------------------------------------------
      H    1    0.46168      0.00000     0.53207    0.00626     0.53832
      H    2    0.45936      0.00000     0.53403    0.00661     0.54064
      O    3   -0.92104      1.99986     6.90857    0.01260     8.92104
 =======================================================================
   * Total *    0.00000      1.99986     7.97467    0.02547    10.00000

                                 Natural Population      
 --------------------------------------------------------
   Core                       1.99986 ( 99.9932% of   2)
   Valence                    7.97467 ( 99.6834% of   8)
   Natural Minimal Basis      9.97453 ( 99.7453% of  10)
   Natural Rydberg Basis      0.02547 (  0.2547% of  10)
 --------------------------------------------------------

    Atom  No          Natural Electron Configuration
 ----------------------------------------------------------------------------
      H    1            1S( 0.53)
      H    2            1S( 0.53)
      O    3      [core]2S( 1.75)2p( 5.15)3d( 0.01)


 NBO analysis skipped by request.
   1 Symmetry operations used in ECPInt.
 ECPInt:  NShTT=     276 NPrTT=     694 LenC2=     277 LenP2D=     680.
 LDataN:  DoStor=T MaxTD1= 7 Len=  274
 Calling FoFJK, ICntrl=  10002127 FMM=F ISym2X=0 I1Cent= 0 IOpClX= 0 NMat=1 NMatS=1 NMatT=0.
 -------------------------------------------------------------------
 Center     Atomic                   Forces (Hartrees/Bohr)
 Number     Number              X              Y              Z
 -------------------------------------------------------------------
      1        1           0.000000000   -0.032004710    0.018563967
      2        1           0.000000000    0.002713498   -0.002869600
      3        8           0.000000000    0.029291212   -0.015694366
 -------------------------------------------------------------------
 Cartesian Forces:  Max     0.032004710 RMS     0.016629319

 GradGradGradGradGradGradGradGradGradGradGradGradGradGradGradGradGradGrad
 Berny optimization.
 Search for a local minimum.
 Step number   1 out of a maximum of    2
 All quantities printed in internal units (Hartrees-Bohrs-Radians)
 Second derivative matrix not updated -- first step.
 The second derivative matrix:
                          X1        Y1        Z1        X2        Y2
           X1           1.00000
           Y1           0.00000   0.32899
           Z1           0.00000  -0.20616   0.19450
           X2           0.00000   0.00000   0.00000   1.00000
           Y2           0.00000  -0.01680  -0.02316   0.00000   0.36664
           Z2           0.00000   0.02173   0.02994   0.00000   0.24592
           X3           0.00000   0.00000   0.00000   0.00000   0.00000
           Y3           0.00000  -0.31218   0.22932   0.00000  -0.34984
           Z3           0.00000   0.18443  -0.22443   0.00000  -0.22276
                          Z2        X3        Y3        Z3
           Z2           0.23893
           X3           0.00000   1.00000
           Y3          -0.26764   0.00000   0.66202
           Z3          -0.26887   0.00000   0.03833   0.49331
 ITU=  0
     Eigenvalues ---    0.14164   0.77369   0.96558
 Angle between quadratic step and forces=  44.87 degrees.
 Linear search not attempted -- first point.
 TrRot=  0.000000  0.008867  0.002610  0.000000  0.000000  0.000000
 Variable       Old X    -DE/DX   Delta X   Delta X   Delta X     New X
                                 (Linear)    (Quad)   (Total)
    X1        0.00000   0.00000   0.00000   0.00000   0.00000   0.00000
    Y1        1.52797  -0.03200   0.00000  -0.07665  -0.06779   1.46019
    Z1       -0.88704   0.01856   0.00000   0.00954   0.01215  -0.87489
    X2        0.00000   0.00000   0.00000   0.00000   0.00000   0.00000
    Y2       -1.43349   0.00271   0.00000   0.03550   0.04437  -1.38912
    Z2       -0.88704  -0.00287   0.00000  -0.02166  -0.01905  -0.90609
    X3        0.00000   0.00000   0.00000   0.00000   0.00000   0.00000
    Y3        0.00000   0.02929   0.00000   0.01455   0.02342   0.02342
    Z3        0.22176  -0.01569   0.00000   0.00428   0.00689   0.22865
         Item               Value     Threshold  Converged?
 Maximum Force            0.032005     0.000450     NO 
 RMS     Force            0.016629     0.000300     NO 
 Maximum Displacement     0.067785     0.001800     NO 
 RMS     Displacement     0.029193     0.001200     NO 
 Predicted change in Energy=-1.573935D-03
 GradGradGradGradGradGradGradGradGradGradGradGradGradGradGradGradGradGrad

 1\1\GINC-CCWSGE0943\Force\RB2PLYP-FC\def2TZVPP\H2O1\ALLOUCHE\16-May-20
 19\0\\# B2PLYP/def2tzvpp nosym scf(tight) force Pop=NPA\\xPert\\0,1\H,
 0.,0.808568,-0.469403\H,0.,-0.758568,-0.469403\O,0.,0.,0.117351\\Versi
 on=EM64L-G09RevD.01\HF=-76.327603\MP2=-76.4117272\RMSD=4.354e-09\RMSF=
 1.663e-02\Dipole=0.,0.023114,-0.7605313\PG=CS [SG(H2O1)]\\@


 DON'T WORRY CHARLIE BROWN...WE LEARN MORE FROM LOSING  THAN WE DO FROM WINNING.
 THEN THAT MAKES ME THE SMARTEST PERSON IN THE WORLD...
 CHARLES SCHULZ 'PEANUTS'
 Job cpu time:       0 days  0 hours  0 minutes 14.4 seconds.
 File lengths (MBytes):  RWF=      5 Int=      0 D2E=      0 Chk=      1 Scr=      1
 Normal termination of Gaussian 09 at Thu May 16 09:04:54 2019.
