 Entering Gaussian System, Link 0=/pbs/throng/ilm/sl6/allouche/Gaussian09D/g09/g09
 Initial command:
 /pbs/throng/ilm/sl6/allouche/Gaussian09D/g09/l1.exe "/scratch/6332014.1.long/Gau-393499.inp" -scrdir="/scratch/6332014.1.long/"
 Entering Link 1 = /pbs/throng/ilm/sl6/allouche/Gaussian09D/g09/l1.exe PID=    393500.
  
 Copyright (c) 1988,1990,1992,1993,1995,1998,2003,2009,2013,
            Gaussian, Inc.  All Rights Reserved.
  
 This is part of the Gaussian(R) 09 program.  It is based on
 the Gaussian(R) 03 system (copyright 2003, Gaussian, Inc.),
 the Gaussian(R) 98 system (copyright 1998, Gaussian, Inc.),
 the Gaussian(R) 94 system (copyright 1995, Gaussian, Inc.),
 the Gaussian 92(TM) system (copyright 1992, Gaussian, Inc.),
 the Gaussian 90(TM) system (copyright 1990, Gaussian, Inc.),
 the Gaussian 88(TM) system (copyright 1988, Gaussian, Inc.),
 the Gaussian 86(TM) system (copyright 1986, Carnegie Mellon
 University), and the Gaussian 82(TM) system (copyright 1983,
 Carnegie Mellon University). Gaussian is a federally registered
 trademark of Gaussian, Inc.
  
 This software contains proprietary and confidential information,
 including trade secrets, belonging to Gaussian, Inc.
  
 This software is provided under written license and may be
 used, copied, transmitted, or stored only in accord with that
 written license.
  
 The following legend is applicable only to US Government
 contracts under FAR:
  
                    RESTRICTED RIGHTS LEGEND
  
 Use, reproduction and disclosure by the US Government is
 subject to restrictions as set forth in subparagraphs (a)
 and (c) of the Commercial Computer Software - Restricted
 Rights clause in FAR 52.227-19.
  
 Gaussian, Inc.
 340 Quinnipiac St., Bldg. 40, Wallingford CT 06492
  
  
 ---------------------------------------------------------------
 Warning -- This program may not be used in any manner that
 competes with the business of Gaussian, Inc. or will provide
 assistance to any competitor of Gaussian, Inc.  The licensee
 of this program is prohibited from giving any competitor of
 Gaussian, Inc. access to this program.  By using this program,
 the user acknowledges that Gaussian, Inc. is engaged in the
 business of creating and licensing software in the field of
 computational chemistry and represents and warrants to the
 licensee that it is not a competitor of Gaussian, Inc. and that
 it will not use this program in any manner prohibited above.
 ---------------------------------------------------------------
  

 Cite this work as:
 Gaussian 09, Revision D.01,
 M. J. Frisch, G. W. Trucks, H. B. Schlegel, G. E. Scuseria, 
 M. A. Robb, J. R. Cheeseman, G. Scalmani, V. Barone, B. Mennucci, 
 G. A. Petersson, H. Nakatsuji, M. Caricato, X. Li, H. P. Hratchian, 
 A. F. Izmaylov, J. Bloino, G. Zheng, J. L. Sonnenberg, M. Hada, 
 M. Ehara, K. Toyota, R. Fukuda, J. Hasegawa, M. Ishida, T. Nakajima, 
 Y. Honda, O. Kitao, H. Nakai, T. Vreven, J. A. Montgomery, Jr., 
 J. E. Peralta, F. Ogliaro, M. Bearpark, J. J. Heyd, E. Brothers, 
 K. N. Kudin, V. N. Staroverov, T. Keith, R. Kobayashi, J. Normand, 
 K. Raghavachari, A. Rendell, J. C. Burant, S. S. Iyengar, J. Tomasi, 
 M. Cossi, N. Rega, J. M. Millam, M. Klene, J. E. Knox, J. B. Cross, 
 V. Bakken, C. Adamo, J. Jaramillo, R. Gomperts, R. E. Stratmann, 
 O. Yazyev, A. J. Austin, R. Cammi, C. Pomelli, J. W. Ochterski, 
 R. L. Martin, K. Morokuma, V. G. Zakrzewski, G. A. Voth, 
 P. Salvador, J. J. Dannenberg, S. Dapprich, A. D. Daniels, 
 O. Farkas, J. B. Foresman, J. V. Ortiz, J. Cioslowski, 
 and D. J. Fox, Gaussian, Inc., Wallingford CT, 2013.
 
 ******************************************
 Gaussian 09:  EM64L-G09RevD.01 24-Apr-2013
                16-May-2019 
 ******************************************
 -------------------------------------------------
 # B2PLYP/def2tzvpp nosym scf(tight) force Pop=NPA
 -------------------------------------------------
 1/10=7,30=1,38=1/1,3;
 2/12=2,15=1,17=6,18=5,40=1/2;
 3/5=44,7=202,11=9,16=1,25=1,30=1,71=1,74=-47/1,2,3;
 4//1;
 5/5=2,32=2,38=5/2;
 8/6=4,10=1/1;
 9/15=2,16=-3/6;
 10/5=1,31=1/2;
 6/7=2,8=2,9=2,10=2,18=1,40=-1/1,7;
 7/12=2,29=1,30=1/1,2,3,16;
 1/10=7,30=1/3;
 99//99;
 -----
 xPert
 -----
 Symbolic Z-matrix:
 Charge =  0 Multiplicity = 1
 H                     0.        0.75857  -0.4694 
 H                     0.       -0.75857  -0.4694 
 O                     0.        0.05      0.11735 
 

 GradGradGradGradGradGradGradGradGradGradGradGradGradGradGradGradGradGrad
 Berny optimization.
 Initialization pass.
 Trust Radius=3.00D-01 FncErr=1.00D-07 GrdErr=1.00D-07
 Number of steps in this run=      2 maximum allowed number of steps=      2.
 GradGradGradGradGradGradGradGradGradGradGradGradGradGradGradGradGradGrad

                          Input orientation:                          
 ---------------------------------------------------------------------
 Center     Atomic      Atomic             Coordinates (Angstroms)
 Number     Number       Type             X           Y           Z
 ---------------------------------------------------------------------
      1          1           0        0.000000    0.758568   -0.469403
      2          1           0        0.000000   -0.758568   -0.469403
      3          8           0        0.000000    0.050000    0.117351
 ---------------------------------------------------------------------
                    Distance matrix (angstroms):
                    1          2          3
     1  H    0.000000
     2  H    1.517136   0.000000
     3  O    0.919972   0.999031   0.000000
 Symmetry turned off by external request.
 Stoichiometry    H2O
 Framework group  CS[SG(H2O)]
 Deg. of freedom     3
 Full point group                 CS      NOp   2
 Rotational constants (GHZ):    826.7305232    432.1996307    283.8224390
 Standard basis: def2TZVPP (5D, 7F)
    59 basis functions,    85 primitive gaussians,    66 cartesian basis functions
     5 alpha electrons        5 beta electrons
       nuclear repulsion energy         9.1880048893 Hartrees.
 NAtoms=    3 NActive=    3 NUniq=    3 SFac= 1.00D+00 NAtFMM=   60 NAOKFM=F Big=F
 Integral buffers will be    131072 words long.
 Regular integral format.
 Two-electron integral symmetry is turned off.
 One-electron integrals computed using PRISM.
   1 Symmetry operations used in ECPInt.
 ECPInt:  NShTT=     276 NPrTT=     694 LenC2=     277 LenP2D=     680.
 LDataN:  DoStor=T MaxTD1= 6 Len=  172
 NBasis=    59 RedAO= T EigKep=  2.20D-03  NBF=    59
 NBsUse=    59 1.00D-06 EigRej= -1.00D+00 NBFU=    59
 ExpMin= 1.03D-01 ExpMax= 2.70D+04 ExpMxC= 9.22D+02 IAcc=1 IRadAn=         1 AccDes= 0.00D+00
 Harris functional with IExCor=  419 and IRadAn=       1 diagonalized for initial guess.
 HarFok:  IExCor=  419 AccDes= 0.00D+00 IRadAn=         1 IDoV= 1 UseB2=F ITyADJ=14
 ICtDFT=  3500011 ScaDFX=  1.000000  1.000000  1.000000  1.000000
 FoFCou: FMM=F IPFlag=           0 FMFlag=      100000 FMFlg1=           0
         NFxFlg=           0 DoJE=T BraDBF=F KetDBF=T FulRan=T
         wScrn=  0.000000 ICntrl=     500 IOpCl=  0 I1Cent=   200000004 NGrid=           0
         NMat0=    1 NMatS0=      1 NMatT0=    0 NMatD0=    1 NMtDS0=    0 NMtDT0=    0
 Symmetry not used in FoFCou.
 Keep R1 ints in memory in canonical form, NReq=3557635.
 Requested convergence on RMS density matrix=1.00D-08 within 128 cycles.
 Requested convergence on MAX density matrix=1.00D-06.
 Requested convergence on             energy=1.00D-06.
 No special actions if energy rises.
 Integral accuracy reduced to 1.0D-05 until final iterations.
 Initial convergence to 1.0D-05 achieved.  Increase integral accuracy.
 SCF Done:  E(RB2PLYP) =  -76.3266618064     A.U. after   10 cycles
            NFock= 10  Conv=0.52D-08     -V/T= 2.0024
 DoSCS=T DFT=T ScalE2(SS,OS)=  0.270000  0.270000
 ExpMin= 1.03D-01 ExpMax= 2.70D+04 ExpMxC= 9.22D+02 IAcc=3 IRadAn=         5 AccDes= 0.00D+00
 HarFok:  IExCor=  205 AccDes= 0.00D+00 IRadAn=         5 IDoV=-2 UseB2=F ITyADJ=14
 ICtDFT= 12500011 ScaDFX=  1.000000  1.000000  1.000000  1.000000
 Range of M.O.s used for correlation:     2    59
 NBasis=    59 NAE=     5 NBE=     5 NFC=     1 NFV=     0
 NROrb=     58 NOA=     4 NOB=     4 NVA=    54 NVB=    54
 DoSCS=T DFT=T ScalE2(SS,OS)=  0.270000  0.270000
 Fully direct method using O(ONN) memory.
 JobTyp=1 Pass  1:  I=   2 to   5 NPSUse=  1 ParTrn=F ParDer=F DoDerP=T.
 Spin components of T(2) and E(2):
     alpha-alpha T2 =       0.1162999969D-01 E2=     -0.1021926582D-01
     alpha-beta  T2 =       0.6766340673D-01 E2=     -0.6311574884D-01
     beta-beta   T2 =       0.1162999969D-01 E2=     -0.1021926582D-01
 E2(B2PLYP) =    -0.8355428047D-01 E(B2PLYP) =    -0.76410216086874D+02
          IDoAtm=111
          Differentiating once with respect to electric field.
                with respect to dipole field.
          Differentiating once with respect to nuclear coordinates.
 Keep R1 ints in memory in canonical form, NReq=3533351.
          There are     1 degrees of freedom in the 1st order CPHF.  IDoFFX=0 NUNeed=     1.
 LinEq1:  Iter=  0 NonCon=     1 RMS=1.90D-03 Max=1.55D-02 NDo=     1
 AX will form     1 AO Fock derivatives at one time.
 LinEq1:  Iter=  1 NonCon=     1 RMS=2.07D-04 Max=1.57D-03 NDo=     1
 LinEq1:  Iter=  2 NonCon=     1 RMS=5.57D-05 Max=4.49D-04 NDo=     1
 LinEq1:  Iter=  3 NonCon=     1 RMS=2.49D-05 Max=1.33D-04 NDo=     1
 LinEq1:  Iter=  4 NonCon=     1 RMS=6.05D-06 Max=3.36D-05 NDo=     1
 LinEq1:  Iter=  5 NonCon=     1 RMS=4.55D-07 Max=3.29D-06 NDo=     1
 LinEq1:  Iter=  6 NonCon=     1 RMS=1.19D-07 Max=9.14D-07 NDo=     1
 LinEq1:  Iter=  7 NonCon=     1 RMS=2.19D-08 Max=1.56D-07 NDo=     1
 LinEq1:  Iter=  8 NonCon=     1 RMS=2.09D-09 Max=1.59D-08 NDo=     1
 LinEq1:  Iter=  9 NonCon=     1 RMS=1.28D-10 Max=9.20D-10 NDo=     1
 LinEq1:  Iter= 10 NonCon=     0 RMS=1.52D-11 Max=1.14D-10 NDo=     1
 Linear equations converged to 1.000D-10 1.000D-09 after    10 iterations.
 End of Minotr F.D. properties file   721 does not exist.
 End of Minotr F.D. properties file   722 does not exist.
 End of Minotr F.D. properties file   788 does not exist.

 **********************************************************************

            Population analysis using the SCF density.

 **********************************************************************

 Alpha  occ. eigenvalues --  -19.72537  -1.15435  -0.60868  -0.47088  -0.39626
 Alpha virt. eigenvalues --    0.05932   0.13536   0.41962   0.46130   0.49264
 Alpha virt. eigenvalues --    0.49386   0.60944   0.62653   0.71666   0.74916
 Alpha virt. eigenvalues --    0.84289   1.07858   1.23765   1.31684   1.78895
 Alpha virt. eigenvalues --    1.85405   1.90414   1.93780   1.98872   2.22200
 Alpha virt. eigenvalues --    2.51113   2.70555   2.86337   3.17842   3.28152
 Alpha virt. eigenvalues --    3.35314   3.39303   3.45279   3.54034   3.65560
 Alpha virt. eigenvalues --    3.71064   3.76459   3.77245   4.09915   4.22254
 Alpha virt. eigenvalues --    4.24655   4.28345   4.68368   4.83038   4.92552
 Alpha virt. eigenvalues --    5.13534   5.78207   6.30845   6.50047   6.64877
 Alpha virt. eigenvalues --    6.70035   6.74400   6.82116   6.99678   7.06196
 Alpha virt. eigenvalues --    7.58212   7.60378   7.85038  44.16289
          Condensed to atoms (all electrons):
               1          2          3
     1  H    0.489078  -0.028187   0.348792
     2  H   -0.028187   0.470203   0.327409
     3  O    0.348792   0.327409   7.744691
 Mulliken charges:
               1
     1  H    0.190316
     2  H    0.230576
     3  O   -0.420892
 Sum of Mulliken charges =   0.00000
 Mulliken charges with hydrogens summed into heavy atoms:
               1
     3  O    0.000000
 Electronic spatial extent (au):  <R**2>=             19.5422
 Charge=              0.0000 electrons
 Dipole moment (field-independent basis, Debye):
    X=              0.0000    Y=             -0.1232    Z=             -1.9965  Tot=              2.0003
 Quadrupole moment (field-independent basis, Debye-Ang):
   XX=             -7.4695   YY=             -4.3093   ZZ=             -6.2365
   XY=              0.0000   XZ=              0.0000   YZ=             -0.0364
 Traceless Quadrupole moment (field-independent basis, Debye-Ang):
   XX=             -1.4644   YY=              1.6958   ZZ=             -0.2314
   XY=              0.0000   XZ=              0.0000   YZ=             -0.0364
 Octapole moment (field-independent basis, Debye-Ang**2):
  XXX=              0.0000  YYY=             -0.7255  ZZZ=             -1.1960  XYY=              0.0000
  XXY=             -0.2745  XXZ=             -0.3025  XZZ=              0.0000  YZZ=             -0.2587
  YYZ=             -1.3385  XYZ=              0.0000
 Hexadecapole moment (field-independent basis, Debye-Ang**3):
 XXXX=             -6.2084 YYYY=             -6.1804 ZZZZ=             -7.0139 XXXY=              0.0000
 XXXZ=              0.0000 YYYX=              0.0000 YYYZ=             -0.1419 ZZZX=              0.0000
 ZZZY=             -0.1822 XXYY=             -2.3805 XXZZ=             -2.2581 YYZZ=             -1.8631
 XXYZ=             -0.0622 YYXZ=              0.0000 ZZXY=              0.0000
 N-N= 9.188004889255D+00 E-N=-1.992475893158D+02  KE= 7.614529551892D+01
 ******************************Gaussian NBO Version 3.1******************************
             N A T U R A L   A T O M I C   O R B I T A L   A N D
          N A T U R A L   B O N D   O R B I T A L   A N A L Y S I S
 ******************************Gaussian NBO Version 3.1******************************
       /RESON  / : Allow strongly delocalized NBO set

 Analyzing the SCF density

 Job title: xPert                                                           

 Storage needed:     10799 in NPA ( 536870849 available)


 NATURAL POPULATIONS:  Natural atomic orbital occupancies 
                                                          
   NAO  Atom  No  lang   Type(AO)    Occupancy      Energy
 ----------------------------------------------------------
     1    H    1  S      Val( 1S)     0.54045       0.22342
     2    H    1  S      Ryd( 2S)     0.00144       0.87679
     3    H    1  S      Ryd( 3S)     0.00010       1.59912
     4    H    1  px     Ryd( 2p)     0.00214       1.79033
     5    H    1  px     Ryd( 3p)     0.00000       3.48845
     6    H    1  py     Ryd( 2p)     0.00033       2.46227
     7    H    1  py     Ryd( 3p)     0.00070       3.73860
     8    H    1  pz     Ryd( 2p)     0.00130       2.21286
     9    H    1  pz     Ryd( 3p)     0.00067       3.66637
    10    H    1  dxy    Ryd( 3d)     0.00001       3.85082
    11    H    1  dxz    Ryd( 3d)     0.00001       3.72436
    12    H    1  dyz    Ryd( 3d)     0.00003       4.22851
    13    H    1  dx2y2  Ryd( 3d)     0.00011       3.95346
    14    H    1  dz2    Ryd( 3d)     0.00002       3.95664

    15    H    2  S      Val( 1S)     0.53548       0.11899
    16    H    2  S      Ryd( 2S)     0.00139       0.78417
    17    H    2  S      Ryd( 3S)     0.00009       1.80082
    18    H    2  px     Ryd( 2p)     0.00195       1.58011
    19    H    2  px     Ryd( 3p)     0.00000       3.48066
    20    H    2  py     Ryd( 2p)     0.00028       2.38198
    21    H    2  py     Ryd( 3p)     0.00054       3.79966
    22    H    2  pz     Ryd( 2p)     0.00133       1.98038
    23    H    2  pz     Ryd( 3p)     0.00047       3.66741
    24    H    2  dxy    Ryd( 3d)     0.00001       3.83780
    25    H    2  dxz    Ryd( 3d)     0.00000       3.63225
    26    H    2  dyz    Ryd( 3d)     0.00002       4.12493
    27    H    2  dx2y2  Ryd( 3d)     0.00010       3.92263
    28    H    2  dz2    Ryd( 3d)     0.00002       3.86380

    29    O    3  S      Cor( 1S)     1.99985     -19.50310
    30    O    3  S      Val( 2S)     1.74345      -1.06213
    31    O    3  S      Ryd( 3S)     0.00056       2.24873
    32    O    3  S      Ryd( 4S)     0.00001       2.78184
    33    O    3  S      Ryd( 5S)     0.00000      43.15806
    34    O    3  px     Val( 2p)     1.99191      -0.39023
    35    O    3  px     Ryd( 3p)     0.00125       0.61426
    36    O    3  px     Ryd( 4p)     0.00000       2.67432
    37    O    3  py     Val( 2p)     1.45131      -0.29943
    38    O    3  py     Ryd( 3p)     0.00288       0.69492
    39    O    3  py     Ryd( 4p)     0.00001       3.34263
    40    O    3  pz     Val( 2p)     1.71089      -0.34722
    41    O    3  pz     Ryd( 3p)     0.00036       0.65778
    42    O    3  pz     Ryd( 4p)     0.00017       3.05684
    43    O    3  dxy    Ryd( 3d)     0.00000       2.32772
    44    O    3  dxy    Ryd( 4d)     0.00000       6.51189
    45    O    3  dxz    Ryd( 3d)     0.00246       2.18480
    46    O    3  dxz    Ryd( 4d)     0.00003       6.49068
    47    O    3  dyz    Ryd( 3d)     0.00186       3.51705
    48    O    3  dyz    Ryd( 4d)     0.00018       7.05813
    49    O    3  dx2y2  Ryd( 3d)     0.00086       2.72235
    50    O    3  dx2y2  Ryd( 4d)     0.00001       6.68622
    51    O    3  dz2    Ryd( 3d)     0.00256       2.48207
    52    O    3  dz2    Ryd( 4d)     0.00003       6.60098
    53    O    3  f(0)   Ryd( 4f)     0.00002       5.93265
    54    O    3  f(C1)  Ryd( 4f)     0.00003       5.58045
    55    O    3  f(S1)  Ryd( 4f)     0.00002       6.40148
    56    O    3  f(C2)  Ryd( 4f)     0.00007       6.30301
    57    O    3  f(S2)  Ryd( 4f)     0.00000       6.04332
    58    O    3  f(C3)  Ryd( 4f)     0.00019       5.85769
    59    O    3  f(S3)  Ryd( 4f)     0.00004       5.87698

 WARNING:  Population inversion found on atom  H    1
           Population inversion found on atom  H    2


 Summary of Natural Population Analysis:                  
                                                          
                                       Natural Population 
                Natural  -----------------------------------------------
    Atom  No    Charge         Core      Valence    Rydberg      Total
 -----------------------------------------------------------------------
      H    1    0.45269      0.00000     0.54045    0.00687     0.54731
      H    2    0.45832      0.00000     0.53548    0.00620     0.54168
      O    3   -0.91100      1.99985     6.89756    0.01360     8.91100
 =======================================================================
   * Total *    0.00000      1.99985     7.97348    0.02667    10.00000

                                 Natural Population      
 --------------------------------------------------------
   Core                       1.99985 ( 99.9925% of   2)
   Valence                    7.97348 ( 99.6685% of   8)
   Natural Minimal Basis      9.97333 ( 99.7333% of  10)
   Natural Rydberg Basis      0.02667 (  0.2667% of  10)
 --------------------------------------------------------

    Atom  No          Natural Electron Configuration
 ----------------------------------------------------------------------------
      H    1            1S( 0.54)
      H    2            1S( 0.54)
      O    3      [core]2S( 1.74)2p( 5.15)3d( 0.01)


 NBO analysis skipped by request.
   1 Symmetry operations used in ECPInt.
 ECPInt:  NShTT=     276 NPrTT=     694 LenC2=     277 LenP2D=     680.
 LDataN:  DoStor=T MaxTD1= 7 Len=  274
 Calling FoFJK, ICntrl=  10002127 FMM=F ISym2X=0 I1Cent= 0 IOpClX= 0 NMat=1 NMatS=1 NMatT=0.
 -------------------------------------------------------------------
 Center     Atomic                   Forces (Hartrees/Bohr)
 Number     Number              X              Y              Z
 -------------------------------------------------------------------
      1        1           0.000000000    0.035930634   -0.029574796
      2        1           0.000000000    0.029281712    0.021405336
      3        8           0.000000000   -0.065212346    0.008169460
 -------------------------------------------------------------------
 Cartesian Forces:  Max     0.065212346 RMS     0.029440479

 GradGradGradGradGradGradGradGradGradGradGradGradGradGradGradGradGradGrad
 Berny optimization.
 Search for a local minimum.
 Step number   1 out of a maximum of    2
 All quantities printed in internal units (Hartrees-Bohrs-Radians)
 Second derivative matrix not updated -- first step.
 The second derivative matrix:
                          X1        Y1        Z1        X2        Y2
           X1           1.00000
           Y1           0.00000   0.40746
           Z1           0.00000  -0.29358   0.29604
           X2           0.00000   0.00000   0.00000   1.00000
           Y2           0.00000  -0.01826  -0.02205   0.00000   0.32899
           Z2           0.00000   0.02516   0.03039   0.00000   0.20616
           X3           0.00000   0.00000   0.00000   0.00000   0.00000
           Y3           0.00000  -0.38920   0.31563   0.00000  -0.31073
           Z3           0.00000   0.26841  -0.32643   0.00000  -0.18411
                          Z2        X3        Y3        Z3
           Z2           0.19450
           X3           0.00000   1.00000
           Y3          -0.23132   0.00000   0.69993
           Z3          -0.22488   0.00000  -0.08430   0.55132
 ITU=  0
     Eigenvalues ---    0.14609   0.79296   1.10149
 Angle between quadratic step and forces=  27.72 degrees.
 Linear search not attempted -- first point.
 TrRot=  0.000000 -0.017407  0.000101  0.000000  0.000000  0.000000
 Variable       Old X    -DE/DX   Delta X   Delta X   Delta X     New X
                                 (Linear)    (Quad)   (Total)
    X1        0.00000   0.00000   0.00000   0.00000   0.00000   0.00000
    Y1        1.43349   0.03593   0.00000   0.03810   0.02069   1.45418
    Z1       -0.88704  -0.02957   0.00000  -0.03149  -0.03139  -0.91843
    X2        0.00000   0.00000   0.00000   0.00000   0.00000   0.00000
    Y2       -1.43349   0.02928   0.00000   0.04268   0.02528  -1.40821
    Z2       -0.88704   0.02141   0.00000   0.03102   0.03113  -0.85592
    X3        0.00000   0.00000   0.00000   0.00000   0.00000   0.00000
    Y3        0.09449  -0.06521   0.00000  -0.02856  -0.04597   0.04852
    Z3        0.22176   0.00817   0.00000   0.00017   0.00027   0.22203
         Item               Value     Threshold  Converged?
 Maximum Force            0.065212     0.000450     NO 
 RMS     Force            0.029440     0.000300     NO 
 Maximum Displacement     0.045968     0.001800     NO 
 RMS     Displacement     0.023885     0.001200     NO 
 Predicted change in Energy=-3.039057D-03
 GradGradGradGradGradGradGradGradGradGradGradGradGradGradGradGradGradGrad

 1\1\GINC-CCWSGE0180\Force\RB2PLYP-FC\def2TZVPP\H2O1\ALLOUCHE\16-May-20
 19\0\\# B2PLYP/def2tzvpp nosym scf(tight) force Pop=NPA\\xPert\\0,1\H,
 0.,0.758568,-0.469403\H,0.,-0.758568,-0.469403\O,0.,0.05,0.117351\\Ver
 sion=EM64L-G09RevD.01\HF=-76.3266618\MP2=-76.4102161\RMSD=5.174e-09\RM
 SF=2.944e-02\Dipole=0.,-0.0463516,-0.76707\PG=CS [SG(H2O1)]\\@


 We find comfort among those who agree with us -- growth among those who don't.
 -- Frank A. Clark
 Job cpu time:       0 days  0 hours  0 minutes 16.7 seconds.
 File lengths (MBytes):  RWF=      5 Int=      0 D2E=      0 Chk=      1 Scr=      1
 Normal termination of Gaussian 09 at Thu May 16 09:04:55 2019.
