 Entering Gaussian System, Link 0=/pbs/throng/ilm/sl6/allouche/Gaussian09D/g09/g09
 Initial command:
 /pbs/throng/ilm/sl6/allouche/Gaussian09D/g09/l1.exe "/scratch/6332016.1.long/Gau-23688.inp" -scrdir="/scratch/6332016.1.long/"
 Entering Link 1 = /pbs/throng/ilm/sl6/allouche/Gaussian09D/g09/l1.exe PID=     23689.
  
 Copyright (c) 1988,1990,1992,1993,1995,1998,2003,2009,2013,
            Gaussian, Inc.  All Rights Reserved.
  
 This is part of the Gaussian(R) 09 program.  It is based on
 the Gaussian(R) 03 system (copyright 2003, Gaussian, Inc.),
 the Gaussian(R) 98 system (copyright 1998, Gaussian, Inc.),
 the Gaussian(R) 94 system (copyright 1995, Gaussian, Inc.),
 the Gaussian 92(TM) system (copyright 1992, Gaussian, Inc.),
 the Gaussian 90(TM) system (copyright 1990, Gaussian, Inc.),
 the Gaussian 88(TM) system (copyright 1988, Gaussian, Inc.),
 the Gaussian 86(TM) system (copyright 1986, Carnegie Mellon
 University), and the Gaussian 82(TM) system (copyright 1983,
 Carnegie Mellon University). Gaussian is a federally registered
 trademark of Gaussian, Inc.
  
 This software contains proprietary and confidential information,
 including trade secrets, belonging to Gaussian, Inc.
  
 This software is provided under written license and may be
 used, copied, transmitted, or stored only in accord with that
 written license.
  
 The following legend is applicable only to US Government
 contracts under FAR:
  
                    RESTRICTED RIGHTS LEGEND
  
 Use, reproduction and disclosure by the US Government is
 subject to restrictions as set forth in subparagraphs (a)
 and (c) of the Commercial Computer Software - Restricted
 Rights clause in FAR 52.227-19.
  
 Gaussian, Inc.
 340 Quinnipiac St., Bldg. 40, Wallingford CT 06492
  
  
 ---------------------------------------------------------------
 Warning -- This program may not be used in any manner that
 competes with the business of Gaussian, Inc. or will provide
 assistance to any competitor of Gaussian, Inc.  The licensee
 of this program is prohibited from giving any competitor of
 Gaussian, Inc. access to this program.  By using this program,
 the user acknowledges that Gaussian, Inc. is engaged in the
 business of creating and licensing software in the field of
 computational chemistry and represents and warrants to the
 licensee that it is not a competitor of Gaussian, Inc. and that
 it will not use this program in any manner prohibited above.
 ---------------------------------------------------------------
  

 Cite this work as:
 Gaussian 09, Revision D.01,
 M. J. Frisch, G. W. Trucks, H. B. Schlegel, G. E. Scuseria, 
 M. A. Robb, J. R. Cheeseman, G. Scalmani, V. Barone, B. Mennucci, 
 G. A. Petersson, H. Nakatsuji, M. Caricato, X. Li, H. P. Hratchian, 
 A. F. Izmaylov, J. Bloino, G. Zheng, J. L. Sonnenberg, M. Hada, 
 M. Ehara, K. Toyota, R. Fukuda, J. Hasegawa, M. Ishida, T. Nakajima, 
 Y. Honda, O. Kitao, H. Nakai, T. Vreven, J. A. Montgomery, Jr., 
 J. E. Peralta, F. Ogliaro, M. Bearpark, J. J. Heyd, E. Brothers, 
 K. N. Kudin, V. N. Staroverov, T. Keith, R. Kobayashi, J. Normand, 
 K. Raghavachari, A. Rendell, J. C. Burant, S. S. Iyengar, J. Tomasi, 
 M. Cossi, N. Rega, J. M. Millam, M. Klene, J. E. Knox, J. B. Cross, 
 V. Bakken, C. Adamo, J. Jaramillo, R. Gomperts, R. E. Stratmann, 
 O. Yazyev, A. J. Austin, R. Cammi, C. Pomelli, J. W. Ochterski, 
 R. L. Martin, K. Morokuma, V. G. Zakrzewski, G. A. Voth, 
 P. Salvador, J. J. Dannenberg, S. Dapprich, A. D. Daniels, 
 O. Farkas, J. B. Foresman, J. V. Ortiz, J. Cioslowski, 
 and D. J. Fox, Gaussian, Inc., Wallingford CT, 2013.
 
 ******************************************
 Gaussian 09:  EM64L-G09RevD.01 24-Apr-2013
                16-May-2019 
 ******************************************
 -------------------------------------------------
 # B2PLYP/def2tzvpp nosym scf(tight) force Pop=NPA
 -------------------------------------------------
 1/10=7,30=1,38=1/1,3;
 2/12=2,15=1,17=6,18=5,40=1/2;
 3/5=44,7=202,11=9,16=1,25=1,30=1,71=1,74=-47/1,2,3;
 4//1;
 5/5=2,32=2,38=5/2;
 8/6=4,10=1/1;
 9/15=2,16=-3/6;
 10/5=1,31=1/2;
 6/7=2,8=2,9=2,10=2,18=1,40=-1/1,7;
 7/12=2,29=1,30=1/1,2,3,16;
 1/10=7,30=1/3;
 99//99;
 -----
 xPert
 -----
 Symbolic Z-matrix:
 Charge =  0 Multiplicity = 1
 H                     0.        0.75857  -0.4694 
 H                     0.       -0.75857  -0.4194 
 O                     0.        0.        0.11735 
 

 GradGradGradGradGradGradGradGradGradGradGradGradGradGradGradGradGradGrad
 Berny optimization.
 Initialization pass.
 Trust Radius=3.00D-01 FncErr=1.00D-07 GrdErr=1.00D-07
 Number of steps in this run=      2 maximum allowed number of steps=      2.
 GradGradGradGradGradGradGradGradGradGradGradGradGradGradGradGradGradGrad

                          Input orientation:                          
 ---------------------------------------------------------------------
 Center     Atomic      Atomic             Coordinates (Angstroms)
 Number     Number       Type             X           Y           Z
 ---------------------------------------------------------------------
      1          1           0        0.000000    0.758568   -0.469403
      2          1           0        0.000000   -0.758568   -0.419403
      3          8           0        0.000000    0.000000    0.117351
 ---------------------------------------------------------------------
                    Distance matrix (angstroms):
                    1          2          3
     1  H    0.000000
     2  H    1.517960   0.000000
     3  O    0.959013   0.929263   0.000000
 Symmetry turned off by external request.
 Stoichiometry    H2O
 Framework group  CS[SG(H2O)]
 Deg. of freedom     3
 Full point group                 CS      NOp   2
 Rotational constants (GHZ):    896.5445590    434.8067277    292.8029663
 Standard basis: def2TZVPP (5D, 7F)
    59 basis functions,    85 primitive gaussians,    66 cartesian basis functions
     5 alpha electrons        5 beta electrons
       nuclear repulsion energy         9.3186308791 Hartrees.
 NAtoms=    3 NActive=    3 NUniq=    3 SFac= 1.00D+00 NAtFMM=   60 NAOKFM=F Big=F
 Integral buffers will be    131072 words long.
 Regular integral format.
 Two-electron integral symmetry is turned off.
 One-electron integrals computed using PRISM.
   1 Symmetry operations used in ECPInt.
 ECPInt:  NShTT=     276 NPrTT=     694 LenC2=     277 LenP2D=     681.
 LDataN:  DoStor=T MaxTD1= 6 Len=  172
 NBasis=    59 RedAO= T EigKep=  2.10D-03  NBF=    59
 NBsUse=    59 1.00D-06 EigRej= -1.00D+00 NBFU=    59
 ExpMin= 1.03D-01 ExpMax= 2.70D+04 ExpMxC= 9.22D+02 IAcc=1 IRadAn=         1 AccDes= 0.00D+00
 Harris functional with IExCor=  419 and IRadAn=       1 diagonalized for initial guess.
 HarFok:  IExCor=  419 AccDes= 0.00D+00 IRadAn=         1 IDoV= 1 UseB2=F ITyADJ=14
 ICtDFT=  3500011 ScaDFX=  1.000000  1.000000  1.000000  1.000000
 FoFCou: FMM=F IPFlag=           0 FMFlag=      100000 FMFlg1=           0
         NFxFlg=           0 DoJE=T BraDBF=F KetDBF=T FulRan=T
         wScrn=  0.000000 ICntrl=     500 IOpCl=  0 I1Cent=   200000004 NGrid=           0
         NMat0=    1 NMatS0=      1 NMatT0=    0 NMatD0=    1 NMtDS0=    0 NMtDT0=    0
 Symmetry not used in FoFCou.
 Keep R1 ints in memory in canonical form, NReq=3557649.
 Requested convergence on RMS density matrix=1.00D-08 within 128 cycles.
 Requested convergence on MAX density matrix=1.00D-06.
 Requested convergence on             energy=1.00D-06.
 No special actions if energy rises.
 Integral accuracy reduced to 1.0D-05 until final iterations.
 Initial convergence to 1.0D-05 achieved.  Increase integral accuracy.
 SCF Done:  E(RB2PLYP) =  -76.3293243950     A.U. after   10 cycles
            NFock= 10  Conv=0.41D-08     -V/T= 2.0018
 DoSCS=T DFT=T ScalE2(SS,OS)=  0.270000  0.270000
 ExpMin= 1.03D-01 ExpMax= 2.70D+04 ExpMxC= 9.22D+02 IAcc=3 IRadAn=         5 AccDes= 0.00D+00
 HarFok:  IExCor=  205 AccDes= 0.00D+00 IRadAn=         5 IDoV=-2 UseB2=F ITyADJ=14
 ICtDFT= 12500011 ScaDFX=  1.000000  1.000000  1.000000  1.000000
 Range of M.O.s used for correlation:     2    59
 NBasis=    59 NAE=     5 NBE=     5 NFC=     1 NFV=     0
 NROrb=     58 NOA=     4 NOB=     4 NVA=    54 NVB=    54
 DoSCS=T DFT=T ScalE2(SS,OS)=  0.270000  0.270000
 Fully direct method using O(ONN) memory.
 JobTyp=1 Pass  1:  I=   2 to   5 NPSUse=  1 ParTrn=F ParDer=F DoDerP=T.
 Spin components of T(2) and E(2):
     alpha-alpha T2 =       0.1139568220D-01 E2=     -0.1015660277D-01
     alpha-beta  T2 =       0.6597401948D-01 E2=     -0.6266577575D-01
     beta-beta   T2 =       0.1139568220D-01 E2=     -0.1015660277D-01
 E2(B2PLYP) =    -0.8297898129D-01 E(B2PLYP) =    -0.76412303376327D+02
          IDoAtm=111
          Differentiating once with respect to electric field.
                with respect to dipole field.
          Differentiating once with respect to nuclear coordinates.
 Keep R1 ints in memory in canonical form, NReq=3533351.
          There are     1 degrees of freedom in the 1st order CPHF.  IDoFFX=0 NUNeed=     1.
 LinEq1:  Iter=  0 NonCon=     1 RMS=1.83D-03 Max=1.49D-02 NDo=     1
 AX will form     1 AO Fock derivatives at one time.
 LinEq1:  Iter=  1 NonCon=     1 RMS=1.88D-04 Max=1.46D-03 NDo=     1
 LinEq1:  Iter=  2 NonCon=     1 RMS=4.93D-05 Max=3.98D-04 NDo=     1
 LinEq1:  Iter=  3 NonCon=     1 RMS=2.18D-05 Max=1.18D-04 NDo=     1
 LinEq1:  Iter=  4 NonCon=     1 RMS=5.22D-06 Max=3.10D-05 NDo=     1
 LinEq1:  Iter=  5 NonCon=     1 RMS=3.29D-07 Max=2.62D-06 NDo=     1
 LinEq1:  Iter=  6 NonCon=     1 RMS=6.50D-08 Max=5.41D-07 NDo=     1
 LinEq1:  Iter=  7 NonCon=     1 RMS=1.46D-08 Max=8.68D-08 NDo=     1
 LinEq1:  Iter=  8 NonCon=     1 RMS=1.66D-09 Max=1.49D-08 NDo=     1
 LinEq1:  Iter=  9 NonCon=     0 RMS=9.30D-11 Max=8.16D-10 NDo=     1
 Linear equations converged to 1.000D-10 1.000D-09 after     9 iterations.
 End of Minotr F.D. properties file   721 does not exist.
 End of Minotr F.D. properties file   722 does not exist.
 End of Minotr F.D. properties file   788 does not exist.

 **********************************************************************

            Population analysis using the SCF density.

 **********************************************************************

 Alpha  occ. eigenvalues --  -19.72203  -1.15858  -0.62044  -0.46811  -0.39681
 Alpha virt. eigenvalues --    0.06250   0.13709   0.43326   0.45890   0.49120
 Alpha virt. eigenvalues --    0.49357   0.61043   0.62516   0.73443   0.74742
 Alpha virt. eigenvalues --    0.85536   1.07980   1.24733   1.32358   1.78212
 Alpha virt. eigenvalues --    1.85456   1.89261   1.90934   1.98137   2.24734
 Alpha virt. eigenvalues --    2.50793   2.71153   2.86635   3.20113   3.30059
 Alpha virt. eigenvalues --    3.38244   3.40755   3.46056   3.54038   3.67785
 Alpha virt. eigenvalues --    3.70443   3.76869   3.77355   4.15311   4.25826
 Alpha virt. eigenvalues --    4.26418   4.28528   4.76505   4.82999   4.94724
 Alpha virt. eigenvalues --    5.12722   5.79484   6.30716   6.61582   6.64612
 Alpha virt. eigenvalues --    6.74124   6.76212   6.84141   6.99427   7.12274
 Alpha virt. eigenvalues --    7.59768   7.62067   7.89842  44.21186
          Condensed to atoms (all electrons):
               1          2          3
     1  H    0.470797  -0.030016   0.343353
     2  H   -0.030016   0.478637   0.352043
     3  O    0.343353   0.352043   7.719806
 Mulliken charges:
               1
     1  H    0.215866
     2  H    0.199336
     3  O   -0.415201
 Sum of Mulliken charges =   0.00000
 Mulliken charges with hydrogens summed into heavy atoms:
               1
     3  O    0.000000
 Electronic spatial extent (au):  <R**2>=             19.2909
 Charge=              0.0000 electrons
 Dipole moment (field-independent basis, Debye):
    X=              0.0000    Y=             -0.0168    Z=             -1.9493  Tot=              1.9494
 Quadrupole moment (field-independent basis, Debye-Ang):
   XX=             -7.4398   YY=             -4.2324   ZZ=             -6.3146
   XY=              0.0000   XZ=              0.0000   YZ=             -0.0830
 Traceless Quadrupole moment (field-independent basis, Debye-Ang):
   XX=             -1.4442   YY=              1.7632   ZZ=             -0.3190
   XY=              0.0000   XZ=              0.0000   YZ=             -0.0830
 Octapole moment (field-independent basis, Debye-Ang**2):
  XXX=              0.0000  YYY=             -0.0479  ZZZ=             -1.2665  XYY=              0.0000
  XXY=             -0.0187  XXZ=             -0.3433  XZZ=              0.0000  YZZ=              0.0494
  YYZ=             -1.3232  XYZ=              0.0000
 Hexadecapole moment (field-independent basis, Debye-Ang**3):
 XXXX=             -6.1719 YYYY=             -5.9103 ZZZZ=             -6.9178 XXXY=              0.0000
 XXXZ=              0.0000 YYYX=              0.0000 YYYZ=              0.0056 ZZZX=              0.0000
 ZZZY=              0.0049 XXYY=             -2.3315 XXZZ=             -2.2277 YYZZ=             -1.8576
 XXYZ=              0.0215 YYXZ=              0.0000 ZZXY=              0.0000
 N-N= 9.318630879093D+00 E-N=-1.995337124468D+02  KE= 7.619012574437D+01
 ******************************Gaussian NBO Version 3.1******************************
             N A T U R A L   A T O M I C   O R B I T A L   A N D
          N A T U R A L   B O N D   O R B I T A L   A N A L Y S I S
 ******************************Gaussian NBO Version 3.1******************************
       /RESON  / : Allow strongly delocalized NBO set

 Analyzing the SCF density

 Job title: xPert                                                           

 Storage needed:     10799 in NPA ( 536870849 available)


 NATURAL POPULATIONS:  Natural atomic orbital occupancies 
                                                          
   NAO  Atom  No  lang   Type(AO)    Occupancy      Energy
 ----------------------------------------------------------
     1    H    1  S      Val( 1S)     0.53488       0.16666
     2    H    1  S      Ryd( 2S)     0.00135       0.82460
     3    H    1  S      Ryd( 3S)     0.00011       1.70954
     4    H    1  px     Ryd( 2p)     0.00197       1.69618
     5    H    1  px     Ryd( 3p)     0.00000       3.47266
     6    H    1  py     Ryd( 2p)     0.00027       2.42288
     7    H    1  py     Ryd( 3p)     0.00061       3.74803
     8    H    1  pz     Ryd( 2p)     0.00128       2.09935
     9    H    1  pz     Ryd( 3p)     0.00054       3.65840
    10    H    1  dxy    Ryd( 3d)     0.00001       3.84856
    11    H    1  dxz    Ryd( 3d)     0.00001       3.67826
    12    H    1  dyz    Ryd( 3d)     0.00002       4.17615
    13    H    1  dx2y2  Ryd( 3d)     0.00010       3.93413
    14    H    1  dz2    Ryd( 3d)     0.00003       3.91261

    15    H    2  S      Val( 1S)     0.53746       0.20810
    16    H    2  S      Ryd( 2S)     0.00137       0.86661
    17    H    2  S      Ryd( 3S)     0.00011       1.62300
    18    H    2  px     Ryd( 2p)     0.00203       1.78062
    19    H    2  px     Ryd( 3p)     0.00000       3.47346
    20    H    2  py     Ryd( 2p)     0.00023       2.52714
    21    H    2  py     Ryd( 3p)     0.00075       3.73575
    22    H    2  pz     Ryd( 2p)     0.00132       2.13165
    23    H    2  pz     Ryd( 3p)     0.00054       3.64216
    24    H    2  dxy    Ryd( 3d)     0.00001       3.89518
    25    H    2  dxz    Ryd( 3d)     0.00001       3.67016
    26    H    2  dyz    Ryd( 3d)     0.00003       4.21419
    27    H    2  dx2y2  Ryd( 3d)     0.00011       3.99129
    28    H    2  dz2    Ryd( 3d)     0.00003       3.90228

    29    O    3  S      Cor( 1S)     1.99985     -19.49700
    30    O    3  S      Val( 2S)     1.73002      -1.05551
    31    O    3  S      Ryd( 3S)     0.00052       2.27850
    32    O    3  S      Ryd( 4S)     0.00000       7.65621
    33    O    3  S      Ryd( 5S)     0.00000      38.30989
    34    O    3  px     Val( 2p)     1.99191      -0.39072
    35    O    3  px     Ryd( 3p)     0.00135       0.61677
    36    O    3  px     Ryd( 4p)     0.00000       2.67029
    37    O    3  py     Val( 2p)     1.45144      -0.29872
    38    O    3  py     Ryd( 3p)     0.00320       0.70795
    39    O    3  py     Ryd( 4p)     0.00001       3.37662
    40    O    3  pz     Val( 2p)     1.72773      -0.35062
    41    O    3  pz     Ryd( 3p)     0.00038       0.66072
    42    O    3  pz     Ryd( 4p)     0.00014       3.03727
    43    O    3  dxy    Ryd( 3d)     0.00000       2.37432
    44    O    3  dxy    Ryd( 4d)     0.00000       6.51471
    45    O    3  dxz    Ryd( 3d)     0.00244       2.18481
    46    O    3  dxz    Ryd( 4d)     0.00003       6.48243
    47    O    3  dyz    Ryd( 3d)     0.00177       3.56933
    48    O    3  dyz    Ryd( 4d)     0.00018       7.05985
    49    O    3  dx2y2  Ryd( 3d)     0.00091       2.82272
    50    O    3  dx2y2  Ryd( 4d)     0.00001       6.70509
    51    O    3  dz2    Ryd( 3d)     0.00252       2.48353
    52    O    3  dz2    Ryd( 4d)     0.00004       6.59088
    53    O    3  f(0)   Ryd( 4f)     0.00001       5.93919
    54    O    3  f(C1)  Ryd( 4f)     0.00002       5.57182
    55    O    3  f(S1)  Ryd( 4f)     0.00003       6.42008
    56    O    3  f(C2)  Ryd( 4f)     0.00008       6.34060
    57    O    3  f(S2)  Ryd( 4f)     0.00000       6.05749
    58    O    3  f(C3)  Ryd( 4f)     0.00021       5.90743
    59    O    3  f(S3)  Ryd( 4f)     0.00004       5.93347

 WARNING:  Population inversion found on atom  H    1
           Population inversion found on atom  H    2


 Summary of Natural Population Analysis:                  
                                                          
                                       Natural Population 
                Natural  -----------------------------------------------
    Atom  No    Charge         Core      Valence    Rydberg      Total
 -----------------------------------------------------------------------
      H    1    0.45883      0.00000     0.53488    0.00630     0.54117
      H    2    0.45601      0.00000     0.53746    0.00653     0.54399
      O    3   -0.91484      1.99985     6.90110    0.01389     8.91484
 =======================================================================
   * Total *    0.00000      1.99985     7.97343    0.02672    10.00000

                                 Natural Population      
 --------------------------------------------------------
   Core                       1.99985 ( 99.9923% of   2)
   Valence                    7.97343 ( 99.6679% of   8)
   Natural Minimal Basis      9.97328 ( 99.7328% of  10)
   Natural Rydberg Basis      0.02672 (  0.2672% of  10)
 --------------------------------------------------------

    Atom  No          Natural Electron Configuration
 ----------------------------------------------------------------------------
      H    1            1S( 0.53)
      H    2            1S( 0.54)
      O    3      [core]2S( 1.73)2p( 5.17)3d( 0.01)


 NBO analysis skipped by request.
   1 Symmetry operations used in ECPInt.
 ECPInt:  NShTT=     276 NPrTT=     694 LenC2=     277 LenP2D=     681.
 LDataN:  DoStor=T MaxTD1= 7 Len=  274
 Calling FoFJK, ICntrl=  10002127 FMM=F ISym2X=0 I1Cent= 0 IOpClX= 0 NMat=1 NMatS=1 NMatT=0.
 -------------------------------------------------------------------
 Center     Atomic                   Forces (Hartrees/Bohr)
 Number     Number              X              Y              Z
 -------------------------------------------------------------------
      1        1           0.000000000   -0.003063974   -0.001101277
      2        1           0.000000000   -0.024949409   -0.021125747
      3        8           0.000000000    0.028013383    0.022227025
 -------------------------------------------------------------------
 Cartesian Forces:  Max     0.028013383 RMS     0.016186967

 GradGradGradGradGradGradGradGradGradGradGradGradGradGradGradGradGradGrad
 Berny optimization.
 Search for a local minimum.
 Step number   1 out of a maximum of    2
 All quantities printed in internal units (Hartrees-Bohrs-Radians)
 Second derivative matrix not updated -- first step.
 The second derivative matrix:
                          X1        Y1        Z1        X2        Y2
           X1           1.00000
           Y1           0.00000   0.36664
           Z1           0.00000  -0.24592   0.23893
           X2           0.00000   0.00000   0.00000   1.00000
           Y2           0.00000  -0.01777  -0.02297   0.00000   0.43477
           Z2           0.00000   0.02511   0.03246   0.00000   0.27092
           X3           0.00000   0.00000   0.00000   0.00000   0.00000
           Y3           0.00000  -0.34888   0.26889   0.00000  -0.41700
           Z3           0.00000   0.22081  -0.27140   0.00000  -0.24795
                          Z2        X3        Y3        Z3
           Z2           0.24359
           X3           0.00000   1.00000
           Y3          -0.29603   0.00000   0.76588
           Z3          -0.27605   0.00000   0.02714   0.54745
 ITU=  0
     Eigenvalues ---    0.15345   0.88778   1.09745
 Angle between quadratic step and forces=  31.91 degrees.
 Linear search not attempted -- first point.
 TrRot=  0.000000  0.006708  0.009176  0.000000  0.000000  0.000000
 Variable       Old X    -DE/DX   Delta X   Delta X   Delta X     New X
                                 (Linear)    (Quad)   (Total)
    X1        0.00000   0.00000   0.00000   0.00000   0.00000   0.00000
    Y1        1.43349  -0.00306   0.00000  -0.01225  -0.00554   1.42795
    Z1       -0.88704  -0.00110   0.00000  -0.00987  -0.00070  -0.88774
    X2        0.00000   0.00000   0.00000   0.00000   0.00000   0.00000
    Y2       -1.43349  -0.02495   0.00000  -0.01888  -0.01218  -1.44566
    Z2       -0.79256  -0.02113   0.00000  -0.03271  -0.02353  -0.81609
    X3        0.00000   0.00000   0.00000   0.00000   0.00000   0.00000
    Y3        0.00000   0.02801   0.00000   0.01101   0.01771   0.01771
    Z3        0.22176   0.02223   0.00000   0.01505   0.02423   0.24599
         Item               Value     Threshold  Converged?
 Maximum Force            0.028013     0.000450     NO 
 RMS     Force            0.016187     0.000300     NO 
 Maximum Displacement     0.024231     0.001800     NO 
 RMS     Displacement     0.013475     0.001200     NO 
 Predicted change in Energy=-9.267391D-04
 GradGradGradGradGradGradGradGradGradGradGradGradGradGradGradGradGradGrad

 1\1\GINC-CCWSGE0582\Force\RB2PLYP-FC\def2TZVPP\H2O1\ALLOUCHE\16-May-20
 19\0\\# B2PLYP/def2tzvpp nosym scf(tight) force Pop=NPA\\xPert\\0,1\H,
 0.,0.758568,-0.469403\H,0.,-0.758568,-0.419403\O,0.,0.,0.117351\\Versi
 on=EM64L-G09RevD.01\HF=-76.3293244\MP2=-76.4123034\RMSD=4.079e-09\RMSF
 =1.619e-02\Dipole=0.,-0.0068424,-0.750093\PG=CS [SG(H2O1)]\\@


 DON'T WORRY CHARLIE BROWN...WE LEARN MORE FROM LOSING  THAN WE DO FROM WINNING.
 THEN THAT MAKES ME THE SMARTEST PERSON IN THE WORLD...
 CHARLES SCHULZ 'PEANUTS'
 Job cpu time:       0 days  0 hours  0 minutes 15.4 seconds.
 File lengths (MBytes):  RWF=      5 Int=      0 D2E=      0 Chk=      1 Scr=      1
 Normal termination of Gaussian 09 at Thu May 16 09:04:54 2019.
