 Entering Gaussian System, Link 0=/pbs/throng/ilm/sl6/allouche/Gaussian09D/g09/g09
 Initial command:
 /pbs/throng/ilm/sl6/allouche/Gaussian09D/g09/l1.exe "/scratch/6332017.1.long/Gau-306956.inp" -scrdir="/scratch/6332017.1.long/"
 Entering Link 1 = /pbs/throng/ilm/sl6/allouche/Gaussian09D/g09/l1.exe PID=    306957.
  
 Copyright (c) 1988,1990,1992,1993,1995,1998,2003,2009,2013,
            Gaussian, Inc.  All Rights Reserved.
  
 This is part of the Gaussian(R) 09 program.  It is based on
 the Gaussian(R) 03 system (copyright 2003, Gaussian, Inc.),
 the Gaussian(R) 98 system (copyright 1998, Gaussian, Inc.),
 the Gaussian(R) 94 system (copyright 1995, Gaussian, Inc.),
 the Gaussian 92(TM) system (copyright 1992, Gaussian, Inc.),
 the Gaussian 90(TM) system (copyright 1990, Gaussian, Inc.),
 the Gaussian 88(TM) system (copyright 1988, Gaussian, Inc.),
 the Gaussian 86(TM) system (copyright 1986, Carnegie Mellon
 University), and the Gaussian 82(TM) system (copyright 1983,
 Carnegie Mellon University). Gaussian is a federally registered
 trademark of Gaussian, Inc.
  
 This software contains proprietary and confidential information,
 including trade secrets, belonging to Gaussian, Inc.
  
 This software is provided under written license and may be
 used, copied, transmitted, or stored only in accord with that
 written license.
  
 The following legend is applicable only to US Government
 contracts under FAR:
  
                    RESTRICTED RIGHTS LEGEND
  
 Use, reproduction and disclosure by the US Government is
 subject to restrictions as set forth in subparagraphs (a)
 and (c) of the Commercial Computer Software - Restricted
 Rights clause in FAR 52.227-19.
  
 Gaussian, Inc.
 340 Quinnipiac St., Bldg. 40, Wallingford CT 06492
  
  
 ---------------------------------------------------------------
 Warning -- This program may not be used in any manner that
 competes with the business of Gaussian, Inc. or will provide
 assistance to any competitor of Gaussian, Inc.  The licensee
 of this program is prohibited from giving any competitor of
 Gaussian, Inc. access to this program.  By using this program,
 the user acknowledges that Gaussian, Inc. is engaged in the
 business of creating and licensing software in the field of
 computational chemistry and represents and warrants to the
 licensee that it is not a competitor of Gaussian, Inc. and that
 it will not use this program in any manner prohibited above.
 ---------------------------------------------------------------
  

 Cite this work as:
 Gaussian 09, Revision D.01,
 M. J. Frisch, G. W. Trucks, H. B. Schlegel, G. E. Scuseria, 
 M. A. Robb, J. R. Cheeseman, G. Scalmani, V. Barone, B. Mennucci, 
 G. A. Petersson, H. Nakatsuji, M. Caricato, X. Li, H. P. Hratchian, 
 A. F. Izmaylov, J. Bloino, G. Zheng, J. L. Sonnenberg, M. Hada, 
 M. Ehara, K. Toyota, R. Fukuda, J. Hasegawa, M. Ishida, T. Nakajima, 
 Y. Honda, O. Kitao, H. Nakai, T. Vreven, J. A. Montgomery, Jr., 
 J. E. Peralta, F. Ogliaro, M. Bearpark, J. J. Heyd, E. Brothers, 
 K. N. Kudin, V. N. Staroverov, T. Keith, R. Kobayashi, J. Normand, 
 K. Raghavachari, A. Rendell, J. C. Burant, S. S. Iyengar, J. Tomasi, 
 M. Cossi, N. Rega, J. M. Millam, M. Klene, J. E. Knox, J. B. Cross, 
 V. Bakken, C. Adamo, J. Jaramillo, R. Gomperts, R. E. Stratmann, 
 O. Yazyev, A. J. Austin, R. Cammi, C. Pomelli, J. W. Ochterski, 
 R. L. Martin, K. Morokuma, V. G. Zakrzewski, G. A. Voth, 
 P. Salvador, J. J. Dannenberg, S. Dapprich, A. D. Daniels, 
 O. Farkas, J. B. Foresman, J. V. Ortiz, J. Cioslowski, 
 and D. J. Fox, Gaussian, Inc., Wallingford CT, 2013.
 
 ******************************************
 Gaussian 09:  EM64L-G09RevD.01 24-Apr-2013
                16-May-2019 
 ******************************************
 -------------------------------------------------
 # B2PLYP/def2tzvpp nosym scf(tight) force Pop=NPA
 -------------------------------------------------
 1/10=7,30=1,38=1/1,3;
 2/12=2,15=1,17=6,18=5,40=1/2;
 3/5=44,7=202,11=9,16=1,25=1,30=1,71=1,74=-47/1,2,3;
 4//1;
 5/5=2,32=2,38=5/2;
 8/6=4,10=1/1;
 9/15=2,16=-3/6;
 10/5=1,31=1/2;
 6/7=2,8=2,9=2,10=2,18=1,40=-1/1,7;
 7/12=2,29=1,30=1/1,2,3,16;
 1/10=7,30=1/3;
 99//99;
 -----
 xPert
 -----
 Symbolic Z-matrix:
 Charge =  0 Multiplicity = 1
 H                     0.        0.75857  -0.4694 
 H                     0.       -0.75857  -0.4694 
 O                     0.        0.        0.16735 
 

 GradGradGradGradGradGradGradGradGradGradGradGradGradGradGradGradGradGrad
 Berny optimization.
 Initialization pass.
 Trust Radius=3.00D-01 FncErr=1.00D-07 GrdErr=1.00D-07
 Number of steps in this run=      2 maximum allowed number of steps=      2.
 GradGradGradGradGradGradGradGradGradGradGradGradGradGradGradGradGradGrad

                          Input orientation:                          
 ---------------------------------------------------------------------
 Center     Atomic      Atomic             Coordinates (Angstroms)
 Number     Number       Type             X           Y           Z
 ---------------------------------------------------------------------
      1          1           0        0.000000    0.758568   -0.469403
      2          1           0        0.000000   -0.758568   -0.469403
      3          8           0        0.000000    0.000000    0.167351
 ---------------------------------------------------------------------
                    Distance matrix (angstroms):
                    1          2          3
     1  H    0.000000
     2  H    1.517136   0.000000
     3  O    0.990394   0.990394   0.000000
 Symmetry turned off by external request.
 Stoichiometry    H2O
 Framework group  C2V[C2(O),SGV(H2)]
 Deg. of freedom     2
 Full point group                 C2V     NOp   4
 Rotational constants (GHZ):    696.3123484    435.7255441    268.0131813
 Standard basis: def2TZVPP (5D, 7F)
    59 basis functions,    85 primitive gaussians,    66 cartesian basis functions
     5 alpha electrons        5 beta electrons
       nuclear repulsion energy         8.8977532770 Hartrees.
 NAtoms=    3 NActive=    3 NUniq=    3 SFac= 1.00D+00 NAtFMM=   60 NAOKFM=F Big=F
 Integral buffers will be    131072 words long.
 Regular integral format.
 Two-electron integral symmetry is turned off.
 One-electron integrals computed using PRISM.
   1 Symmetry operations used in ECPInt.
 ECPInt:  NShTT=     276 NPrTT=     694 LenC2=     277 LenP2D=     679.
 LDataN:  DoStor=T MaxTD1= 6 Len=  172
 NBasis=    59 RedAO= T EigKep=  2.59D-03  NBF=    59
 NBsUse=    59 1.00D-06 EigRej= -1.00D+00 NBFU=    59
 ExpMin= 1.03D-01 ExpMax= 2.70D+04 ExpMxC= 9.22D+02 IAcc=1 IRadAn=         1 AccDes= 0.00D+00
 Harris functional with IExCor=  419 and IRadAn=       1 diagonalized for initial guess.
 HarFok:  IExCor=  419 AccDes= 0.00D+00 IRadAn=         1 IDoV= 1 UseB2=F ITyADJ=14
 ICtDFT=  3500011 ScaDFX=  1.000000  1.000000  1.000000  1.000000
 FoFCou: FMM=F IPFlag=           0 FMFlag=      100000 FMFlg1=           0
         NFxFlg=           0 DoJE=T BraDBF=F KetDBF=T FulRan=T
         wScrn=  0.000000 ICntrl=     500 IOpCl=  0 I1Cent=   200000004 NGrid=           0
         NMat0=    1 NMatS0=      1 NMatT0=    0 NMatD0=    1 NMtDS0=    0 NMtDT0=    0
 Symmetry not used in FoFCou.
 Keep R1 ints in memory in canonical form, NReq=3557621.
 Requested convergence on RMS density matrix=1.00D-08 within 128 cycles.
 Requested convergence on MAX density matrix=1.00D-06.
 Requested convergence on             energy=1.00D-06.
 No special actions if energy rises.
 Integral accuracy reduced to 1.0D-05 until final iterations.
 Initial convergence to 1.0D-05 achieved.  Increase integral accuracy.
 SCF Done:  E(RB2PLYP) =  -76.3265514091     A.U. after   10 cycles
            NFock= 10  Conv=0.36D-08     -V/T= 2.0038
 DoSCS=T DFT=T ScalE2(SS,OS)=  0.270000  0.270000
 ExpMin= 1.03D-01 ExpMax= 2.70D+04 ExpMxC= 9.22D+02 IAcc=3 IRadAn=         5 AccDes= 0.00D+00
 HarFok:  IExCor=  205 AccDes= 0.00D+00 IRadAn=         5 IDoV=-2 UseB2=F ITyADJ=14
 ICtDFT= 12500011 ScaDFX=  1.000000  1.000000  1.000000  1.000000
 Range of M.O.s used for correlation:     2    59
 NBasis=    59 NAE=     5 NBE=     5 NFC=     1 NFV=     0
 NROrb=     58 NOA=     4 NOB=     4 NVA=    54 NVB=    54
 DoSCS=T DFT=T ScalE2(SS,OS)=  0.270000  0.270000
 Fully direct method using O(ONN) memory.
 JobTyp=1 Pass  1:  I=   2 to   5 NPSUse=  1 ParTrn=F ParDer=F DoDerP=T.
 Spin components of T(2) and E(2):
     alpha-alpha T2 =       0.1213976104D-01 E2=     -0.1036193869D-01
     alpha-beta  T2 =       0.7099038990D-01 E2=     -0.6403445785D-01
     beta-beta   T2 =       0.1213976104D-01 E2=     -0.1036193869D-01
 E2(B2PLYP) =    -0.8475833523D-01 E(B2PLYP) =    -0.76411309744371D+02
          IDoAtm=111
          Differentiating once with respect to electric field.
                with respect to dipole field.
          Differentiating once with respect to nuclear coordinates.
 Keep R1 ints in memory in canonical form, NReq=3533351.
          There are     1 degrees of freedom in the 1st order CPHF.  IDoFFX=0 NUNeed=     1.
 LinEq1:  Iter=  0 NonCon=     1 RMS=2.02D-03 Max=1.66D-02 NDo=     1
 AX will form     1 AO Fock derivatives at one time.
 LinEq1:  Iter=  1 NonCon=     1 RMS=2.35D-04 Max=1.91D-03 NDo=     1
 LinEq1:  Iter=  2 NonCon=     1 RMS=6.60D-05 Max=5.70D-04 NDo=     1
 LinEq1:  Iter=  3 NonCon=     1 RMS=3.06D-05 Max=1.66D-04 NDo=     1
 LinEq1:  Iter=  4 NonCon=     1 RMS=7.47D-06 Max=4.57D-05 NDo=     1
 LinEq1:  Iter=  5 NonCon=     1 RMS=5.57D-07 Max=4.86D-06 NDo=     1
 LinEq1:  Iter=  6 NonCon=     1 RMS=7.38D-08 Max=6.08D-07 NDo=     1
 LinEq1:  Iter=  7 NonCon=     1 RMS=5.52D-09 Max=4.71D-08 NDo=     1
 LinEq1:  Iter=  8 NonCon=     1 RMS=2.42D-10 Max=1.58D-09 NDo=     1
 LinEq1:  Iter=  9 NonCon=     0 RMS=1.51D-11 Max=9.20D-11 NDo=     1
 Linear equations converged to 1.000D-10 1.000D-09 after     9 iterations.
 End of Minotr F.D. properties file   721 does not exist.
 End of Minotr F.D. properties file   722 does not exist.
 End of Minotr F.D. properties file   788 does not exist.

 **********************************************************************

            Population analysis using the SCF density.

 **********************************************************************

 Alpha  occ. eigenvalues --  -19.73244  -1.14203  -0.58691  -0.47554  -0.39491
 Alpha virt. eigenvalues --    0.05514   0.13110   0.40832   0.46611   0.48009
 Alpha virt. eigenvalues --    0.49488   0.60186   0.62861   0.68774   0.75298
 Alpha virt. eigenvalues --    0.81924   1.07372   1.24051   1.28069   1.84919
 Alpha virt. eigenvalues --    1.86900   1.87533   1.95709   1.99206   2.19002
 Alpha virt. eigenvalues --    2.51705   2.69723   2.85618   3.14120   3.24449
 Alpha virt. eigenvalues --    3.36001   3.37905   3.40895   3.45652   3.65475
 Alpha virt. eigenvalues --    3.70533   3.75703   3.76467   4.06114   4.14239
 Alpha virt. eigenvalues --    4.16872   4.26124   4.68634   4.70751   4.88539
 Alpha virt. eigenvalues --    5.07794   5.73391   6.29973   6.47994   6.53761
 Alpha virt. eigenvalues --    6.55538   6.72154   6.81741   6.90635   6.98842
 Alpha virt. eigenvalues --    7.52163   7.52746   7.67370  44.04516
          Condensed to atoms (all electrons):
               1          2          3
     1  H    0.484468  -0.024986   0.319758
     2  H   -0.024986   0.484468   0.319758
     3  O    0.319758   0.319758   7.802003
 Mulliken charges:
               1
     1  H    0.220760
     2  H    0.220760
     3  O   -0.441519
 Sum of Mulliken charges =   0.00000
 Mulliken charges with hydrogens summed into heavy atoms:
               1
     3  O    0.000000
 Electronic spatial extent (au):  <R**2>=             20.0626
 Charge=              0.0000 electrons
 Dipole moment (field-independent basis, Debye):
    X=              0.0000    Y=              0.0000    Z=             -2.0844  Tot=              2.0844
 Quadrupole moment (field-independent basis, Debye-Ang):
   XX=             -7.5327   YY=             -4.4482   ZZ=             -6.2834
   XY=              0.0000   XZ=              0.0000   YZ=              0.0000
 Traceless Quadrupole moment (field-independent basis, Debye-Ang):
   XX=             -1.4446   YY=              1.6399   ZZ=             -0.1953
   XY=              0.0000   XZ=              0.0000   YZ=              0.0000
 Octapole moment (field-independent basis, Debye-Ang**2):
  XXX=              0.0000  YYY=              0.0000  ZZZ=             -1.9933  XYY=              0.0000
  XXY=              0.0000  XXZ=             -0.5913  XZZ=              0.0000  YZZ=              0.0000
  YYZ=             -1.5753  XYZ=              0.0000
 Hexadecapole moment (field-independent basis, Debye-Ang**3):
 XXXX=             -6.2852 YYYY=             -6.4931 ZZZZ=             -7.5540 XXXY=              0.0000
 XXXZ=              0.0000 YYYX=              0.0000 YYYZ=              0.0000 ZZZX=              0.0000
 ZZZY=              0.0000 XXYY=             -2.4349 XXZZ=             -2.3719 YYZZ=             -1.9775
 XXYZ=              0.0000 YYXZ=              0.0000 ZZXY=              0.0000
 N-N= 8.897753276958D+00 E-N=-1.986135494956D+02  KE= 7.603461030382D+01
 ******************************Gaussian NBO Version 3.1******************************
             N A T U R A L   A T O M I C   O R B I T A L   A N D
          N A T U R A L   B O N D   O R B I T A L   A N A L Y S I S
 ******************************Gaussian NBO Version 3.1******************************
       /RESON  / : Allow strongly delocalized NBO set

 Analyzing the SCF density

 Job title: xPert                                                           

 Storage needed:     10799 in NPA ( 536870849 available)


 NATURAL POPULATIONS:  Natural atomic orbital occupancies 
                                                          
   NAO  Atom  No  lang   Type(AO)    Occupancy      Energy
 ----------------------------------------------------------
     1    H    1  S      Val( 1S)     0.53781       0.13137
     2    H    1  S      Ryd( 2S)     0.00155       0.77796
     3    H    1  S      Ryd( 3S)     0.00008       1.79847
     4    H    1  px     Ryd( 2p)     0.00211       1.57314
     5    H    1  px     Ryd( 3p)     0.00000       3.50486
     6    H    1  py     Ryd( 2p)     0.00039       2.29381
     7    H    1  py     Ryd( 3p)     0.00052       3.81426
     8    H    1  pz     Ryd( 2p)     0.00134       2.04121
     9    H    1  pz     Ryd( 3p)     0.00059       3.70691
    10    H    1  dxy    Ryd( 3d)     0.00002       3.79707
    11    H    1  dxz    Ryd( 3d)     0.00000       3.68327
    12    H    1  dyz    Ryd( 3d)     0.00003       4.13632
    13    H    1  dx2y2  Ryd( 3d)     0.00011       3.89991
    14    H    1  dz2    Ryd( 3d)     0.00001       3.91471

    15    H    2  S      Val( 1S)     0.53781       0.13137
    16    H    2  S      Ryd( 2S)     0.00155       0.77796
    17    H    2  S      Ryd( 3S)     0.00008       1.79847
    18    H    2  px     Ryd( 2p)     0.00211       1.57314
    19    H    2  px     Ryd( 3p)     0.00000       3.50486
    20    H    2  py     Ryd( 2p)     0.00039       2.29381
    21    H    2  py     Ryd( 3p)     0.00052       3.81426
    22    H    2  pz     Ryd( 2p)     0.00134       2.04121
    23    H    2  pz     Ryd( 3p)     0.00059       3.70691
    24    H    2  dxy    Ryd( 3d)     0.00002       3.79707
    25    H    2  dxz    Ryd( 3d)     0.00000       3.68327
    26    H    2  dyz    Ryd( 3d)     0.00003       4.13632
    27    H    2  dx2y2  Ryd( 3d)     0.00011       3.89991
    28    H    2  dz2    Ryd( 3d)     0.00001       3.91471

    29    O    3  S      Cor( 1S)     1.99988     -19.52145
    30    O    3  S      Val( 2S)     1.77118      -1.07541
    31    O    3  S      Ryd( 3S)     0.00060       2.08756
    32    O    3  S      Ryd( 5S)     0.00000      37.31497
    33    O    3  S      Ryd( 4S)     0.00000       8.64269
    34    O    3  px     Val( 2p)     1.99205      -0.38911
    35    O    3  px     Ryd( 3p)     0.00103       0.58967
    36    O    3  px     Ryd( 4p)     0.00000       2.70676
    37    O    3  py     Val( 2p)     1.45626      -0.30316
    38    O    3  py     Ryd( 3p)     0.00226       0.65683
    39    O    3  py     Ryd( 4p)     0.00001       3.29131
    40    O    3  pz     Val( 2p)     1.67879      -0.34359
    41    O    3  pz     Ryd( 3p)     0.00021       0.63527
    42    O    3  pz     Ryd( 4p)     0.00019       3.07989
    43    O    3  dxy    Ryd( 3d)     0.00000       2.24633
    44    O    3  dxy    Ryd( 4d)     0.00000       6.50468
    45    O    3  dxz    Ryd( 3d)     0.00242       2.16380
    46    O    3  dxz    Ryd( 4d)     0.00003       6.50253
    47    O    3  dyz    Ryd( 3d)     0.00202       3.34271
    48    O    3  dyz    Ryd( 4d)     0.00016       7.05063
    49    O    3  dx2y2  Ryd( 3d)     0.00080       2.55454
    50    O    3  dx2y2  Ryd( 4d)     0.00001       6.65980
    51    O    3  dz2    Ryd( 3d)     0.00259       2.45132
    52    O    3  dz2    Ryd( 4d)     0.00003       6.61529
    53    O    3  f(0)   Ryd( 4f)     0.00002       5.90487
    54    O    3  f(C1)  Ryd( 4f)     0.00003       5.57431
    55    O    3  f(S1)  Ryd( 4f)     0.00001       6.35744
    56    O    3  f(C2)  Ryd( 4f)     0.00007       6.22772
    57    O    3  f(S2)  Ryd( 4f)     0.00000       6.01701
    58    O    3  f(C3)  Ryd( 4f)     0.00015       5.77992
    59    O    3  f(S3)  Ryd( 4f)     0.00004       5.79147

 WARNING:  Population inversion found on atom  H    1
           Population inversion found on atom  H    2
           Population inversion found on atom  O    3


 Summary of Natural Population Analysis:                  
                                                          
                                       Natural Population 
                Natural  -----------------------------------------------
    Atom  No    Charge         Core      Valence    Rydberg      Total
 -----------------------------------------------------------------------
      H    1    0.45543      0.00000     0.53781    0.00676     0.54457
      H    2    0.45543      0.00000     0.53781    0.00676     0.54457
      O    3   -0.91086      1.99988     6.89829    0.01269     8.91086
 =======================================================================
   * Total *    0.00000      1.99988     7.97390    0.02622    10.00000

                                 Natural Population      
 --------------------------------------------------------
   Core                       1.99988 ( 99.9939% of   2)
   Valence                    7.97390 ( 99.6738% of   8)
   Natural Minimal Basis      9.97378 ( 99.7378% of  10)
   Natural Rydberg Basis      0.02622 (  0.2622% of  10)
 --------------------------------------------------------

    Atom  No          Natural Electron Configuration
 ----------------------------------------------------------------------------
      H    1            1S( 0.54)
      H    2            1S( 0.54)
      O    3      [core]2S( 1.77)2p( 5.13)3d( 0.01)


 NBO analysis skipped by request.
   1 Symmetry operations used in ECPInt.
 ECPInt:  NShTT=     276 NPrTT=     694 LenC2=     277 LenP2D=     679.
 LDataN:  DoStor=T MaxTD1= 7 Len=  274
 Calling FoFJK, ICntrl=  10002127 FMM=F ISym2X=0 I1Cent= 0 IOpClX= 0 NMat=1 NMatS=1 NMatT=0.
 -------------------------------------------------------------------
 Center     Atomic                   Forces (Hartrees/Bohr)
 Number     Number              X              Y              Z
 -------------------------------------------------------------------
      1        1           0.000000000   -0.016773026    0.020636261
      2        1           0.000000000    0.016773026    0.020636261
      3        8           0.000000000    0.000000000   -0.041272522
 -------------------------------------------------------------------
 Cartesian Forces:  Max     0.041272522 RMS     0.018612422

 GradGradGradGradGradGradGradGradGradGradGradGradGradGradGradGradGradGrad
 Berny optimization.
 Search for a local minimum.
 Step number   1 out of a maximum of    2
 All quantities printed in internal units (Hartrees-Bohrs-Radians)
 Second derivative matrix not updated -- first step.
 The second derivative matrix:
                          X1        Y1        Z1        X2        Y2
           X1           1.00000
           Y1           0.00000   0.30879
           Z1           0.00000  -0.22086   0.23107
           X2           0.00000   0.00000   0.00000   1.00000
           Y2           0.00000  -0.01888  -0.02249   0.00000   0.30879
           Z2           0.00000   0.02249   0.02680   0.00000   0.22086
           X3           0.00000   0.00000   0.00000   0.00000   0.00000
           Y3           0.00000  -0.28991   0.24335   0.00000  -0.28991
           Z3           0.00000   0.19836  -0.25787   0.00000  -0.19836
                          Z2        X3        Y3        Z3
           Z2           0.23107
           X3           0.00000   1.00000
           Y3          -0.24335   0.00000   0.57981
           Z3          -0.25787   0.00000   0.00000   0.51573
 ITU=  0
     Eigenvalues ---    0.13210   0.79675   0.86268
 Angle between quadratic step and forces=  33.14 degrees.
 Linear search not attempted -- first point.
 TrRot=  0.000000  0.000000 -0.019206  0.000000  0.000000  0.000000
 Variable       Old X    -DE/DX   Delta X   Delta X   Delta X     New X
                                 (Linear)    (Quad)   (Total)
    X1        0.00000   0.00000   0.00000   0.00000   0.00000   0.00000
    Y1        1.43349  -0.01677   0.00000  -0.00513  -0.00513   1.42835
    Z1       -0.88704   0.02064   0.00000   0.04457   0.02536  -0.86168
    X2        0.00000   0.00000   0.00000   0.00000   0.00000   0.00000
    Y2       -1.43349   0.01677   0.00000   0.00513   0.00513  -1.42835
    Z2       -0.88704   0.02064   0.00000   0.04457   0.02536  -0.86168
    X3        0.00000   0.00000   0.00000   0.00000   0.00000   0.00000
    Y3        0.00000   0.00000   0.00000   0.00000   0.00000   0.00000
    Z3        0.31625  -0.04127   0.00000  -0.03151  -0.05072   0.26553
         Item               Value     Threshold  Converged?
 Maximum Force            0.041273     0.000450     NO 
 RMS     Force            0.018612     0.000300     NO 
 Maximum Displacement     0.050719     0.001800     NO 
 RMS     Displacement     0.020847     0.001200     NO 
 Predicted change in Energy=-1.656072D-03
 GradGradGradGradGradGradGradGradGradGradGradGradGradGradGradGradGradGrad

 1\1\GINC-CCWSGE1033\Force\RB2PLYP-FC\def2TZVPP\H2O1\ALLOUCHE\16-May-20
 19\0\\# B2PLYP/def2tzvpp nosym scf(tight) force Pop=NPA\\xPert\\0,1\H,
 0.,0.758568,-0.469403\H,0.,-0.758568,-0.469403\O,0.,0.,0.167351\\Versi
 on=EM64L-G09RevD.01\HF=-76.3265514\MP2=-76.4113097\RMSD=3.637e-09\RMSF
 =1.861e-02\Dipole=0.,0.,-0.7979716\PG=C02V [C2(O1),SGV(H2)]\\@


 A COMPUTER IS LIKE A HORSE, IT WILL SENSE WEAKNESS.
     -- GREG WETTSTEIN
 Job cpu time:       0 days  0 hours  0 minutes 17.2 seconds.
 File lengths (MBytes):  RWF=      5 Int=      0 D2E=      0 Chk=      1 Scr=      1
 Normal termination of Gaussian 09 at Thu May 16 09:04:56 2019.
