begin
comment by xLogML : From a0.log file, All value are in AU
atom 0.000000000000 1.433486338220 -0.887043465608 H 0.456920000000 0.000000000000 0.000000000000 0.000001741000 0.000006944000
atom 0.000000000000 -1.433486338220 -0.887043465608 H 0.456920000000 0.000000000000 0.000000000000 -0.000001741000 0.000006944000
atom 0.000000000000 0.000000000000 0.221761338834 O -0.913840000000 0.000000000000 0.000000000000 0.000000000000 -0.000013888000
energy  -76.41329261811300
charge  0.00000000000000
dipole 0.00000000000000 0.00000000000000 -0.78536559151880
end
begin
comment by xLogML : From amx1.log file, All value are in AU
atom -0.094486343889 1.433486338220 -0.887043465608 H 0.457020000000 0.000000000000 0.000067985000 -0.001050998000 0.000804187000
atom 0.000000000000 -1.433486338220 -0.887043465608 H 0.456930000000 0.000000000000 0.000000939000 -0.000015880000 -0.000018739000
atom 0.000000000000 0.000000000000 0.221761338834 O -0.913950000000 0.000000000000 -0.000068924000 0.001066878000 -0.000785448000
energy  -76.41329102664800
charge  0.00000000000000
dipole -0.03344157663516 -0.00031474425068 -0.78497216120544
end
begin
comment by xLogML : From amx2.log file, All value are in AU
atom 0.000000000000 1.433486338220 -0.887043465608 H 0.456930000000 0.000000000000 0.000000939000 0.000015880000 -0.000018739000
atom -0.094486343889 -1.433486338220 -0.887043465608 H 0.457020000000 0.000000000000 0.000067985000 0.001050998000 0.000804187000
atom 0.000000000000 0.000000000000 0.221761338834 O -0.913950000000 0.000000000000 -0.000068924000 -0.001066878000 -0.000785448000
energy  -76.41329102664800
charge  0.00000000000000
dipole -0.03344157663516 0.00031474425068 -0.78497216120544
end
begin
comment by xLogML : From amx3.log file, All value are in AU
atom 0.000000000000 1.433486338220 -0.887043465608 H 0.456860000000 0.000000000000 -0.000078810000 -0.000814739000 0.000919942000
atom 0.000000000000 -1.433486338220 -0.887043465608 H 0.456860000000 0.000000000000 -0.000078810000 0.000814739000 0.000919942000
atom -0.094486343889 0.000000000000 0.221761338834 O -0.913730000000 0.000000000000 0.000157619000 0.000000000000 -0.001839885000
energy  -76.41328884312701
charge  0.00000000000000
dipole 0.06680446720764 0.00000000000000 -0.78406727148473
end
begin
comment by xLogML : From amy1.log file, All value are in AU
atom 0.000000000000 1.338999994331 -0.887043465608 H 0.450830000000 0.000000000000 0.000000000000 0.039135903000 -0.026519734000
atom 0.000000000000 -1.433486338220 -0.887043465608 H 0.454140000000 0.000000000000 0.000000000000 -0.003198650000 0.003025234000
atom 0.000000000000 0.000000000000 0.221761338834 O -0.904960000000 0.000000000000 0.000000000000 -0.035937253000 0.023494499000
energy  -76.41150225577400
charge  0.00000000000000
dipole 0.00000000000000 -0.02431399336532 -0.79107033106244
end
begin
comment by xLogML : From amy2.log file, All value are in AU
atom 0.000000000000 1.433486338220 -0.887043465608 H 0.459360000000 0.000000000000 0.000000000000 -0.002713498000 -0.002869600000
atom 0.000000000000 -1.527972682108 -0.887043465608 H 0.461680000000 0.000000000000 0.000000000000 0.032004710000 0.018563967000
atom 0.000000000000 0.000000000000 0.221761338834 O -0.921040000000 0.000000000000 0.000000000000 -0.029291212000 -0.015694366000
energy  -76.41172721801800
charge  0.00000000000000
dipole 0.00000000000000 -0.02419596427132 -0.77958216591248
end
begin
comment by xLogML : From amy3.log file, All value are in AU
atom 0.000000000000 1.433486338220 -0.887043465608 H 0.458320000000 0.000000000000 0.000000000000 -0.029281712000 0.021405336000
atom 0.000000000000 -1.433486338220 -0.887043465608 H 0.452690000000 0.000000000000 0.000000000000 -0.035930634000 -0.029574796000
atom 0.000000000000 -0.094486343889 0.221761338834 O -0.911000000000 0.000000000000 0.000000000000 0.065212346000 0.008169460000
energy  -76.41021608687400
charge  0.00000000000000
dipole 0.00000000000000 0.04847061460531 -0.78548362061280
end
begin
comment by xLogML : From amz1.log file, All value are in AU
atom 0.000000000000 1.433486338220 -0.981529809497 H 0.456820000000 0.000000000000 0.000000000000 -0.019624017000 0.019694030000
atom 0.000000000000 -1.433486338220 -0.887043465608 H 0.455330000000 0.000000000000 0.000000000000 -0.002822406000 0.001036734000
atom 0.000000000000 0.000000000000 0.221761338834 O -0.912150000000 0.000000000000 0.000000000000 0.022446424000 -0.020730765000
energy  -76.41234782895000
charge  0.00000000000000
dipole 0.00000000000000 -0.00759320504775 -0.80291258349442
end
begin
comment by xLogML : From amz2.log file, All value are in AU
atom 0.000000000000 1.433486338220 -0.887043465608 H 0.455330000000 0.000000000000 0.000000000000 0.002822406000 0.001036734000
atom 0.000000000000 -1.433486338220 -0.981529809497 H 0.456820000000 0.000000000000 0.000000000000 0.019624017000 0.019694030000
atom 0.000000000000 0.000000000000 0.221761338834 O -0.912150000000 0.000000000000 0.000000000000 -0.022446424000 -0.020730765000
energy  -76.41234782895000
charge  0.00000000000000
dipole 0.00000000000000 0.00759320504775 -0.80291258349442
end
begin
comment by xLogML : From amz3.log file, All value are in AU
atom 0.000000000000 1.433486338220 -0.887043465608 H 0.458110000000 0.000000000000 0.000000000000 0.021950779000 -0.022299949000
atom 0.000000000000 -1.433486338220 -0.887043465608 H 0.458110000000 0.000000000000 0.000000000000 -0.021950779000 -0.022299949000
atom 0.000000000000 0.000000000000 0.127274994945 O -0.916210000000 0.000000000000 0.000000000000 0.000000000000 0.044599897000
energy  -76.41120611419301
charge  0.00000000000000
dipole 0.00000000000000 0.00000000000000 -0.74795036871876
end
begin
comment by xLogML : From apx1.log file, All value are in AU
atom 0.094486343889 1.433486338220 -0.887043465608 H 0.457020000000 0.000000000000 -0.000067985000 -0.001050998000 0.000804187000
atom 0.000000000000 -1.433486338220 -0.887043465608 H 0.456930000000 0.000000000000 -0.000000939000 -0.000015880000 -0.000018739000
atom 0.000000000000 0.000000000000 0.221761338834 O -0.913950000000 0.000000000000 0.000068924000 0.001066878000 -0.000785448000
energy  -76.41329102664800
charge  0.00000000000000
dipole 0.03344157663516 -0.00031474425068 -0.78497216120544
end
begin
comment by xLogML : From apx2.log file, All value are in AU
atom 0.000000000000 1.433486338220 -0.887043465608 H 0.456930000000 0.000000000000 -0.000000939000 0.000015880000 -0.000018739000
atom 0.094486343889 -1.433486338220 -0.887043465608 H 0.457020000000 0.000000000000 -0.000067985000 0.001050998000 0.000804187000
atom 0.000000000000 0.000000000000 0.221761338834 O -0.913950000000 0.000000000000 0.000068924000 -0.001066878000 -0.000785448000
energy  -76.41329102664800
charge  0.00000000000000
dipole 0.03344157663516 0.00031474425068 -0.78497216120544
end
begin
comment by xLogML : From apx3.log file, All value are in AU
atom 0.000000000000 1.433486338220 -0.887043465608 H 0.456860000000 0.000000000000 0.000078810000 -0.000814739000 0.000919942000
atom 0.000000000000 -1.433486338220 -0.887043465608 H 0.456860000000 0.000000000000 0.000078810000 0.000814739000 0.000919942000
atom 0.094486343889 0.000000000000 0.221761338834 O -0.913730000000 0.000000000000 -0.000157619000 0.000000000000 -0.001839885000
energy  -76.41328884312701
charge  0.00000000000000
dipole -0.06680446720764 0.00000000000000 -0.78406727148473
end
begin
comment by xLogML : From apy1.log file, All value are in AU
atom 0.000000000000 1.527972682108 -0.887043465608 H 0.461680000000 0.000000000000 0.000000000000 -0.032004710000 0.018563967000
atom 0.000000000000 -1.433486338220 -0.887043465608 H 0.459360000000 0.000000000000 0.000000000000 0.002713498000 -0.002869600000
atom 0.000000000000 0.000000000000 0.221761338834 O -0.921040000000 0.000000000000 0.000000000000 0.029291212000 -0.015694366000
energy  -76.41172721801800
charge  0.00000000000000
dipole 0.00000000000000 0.02419596427132 -0.77958216591248
end
begin
comment by xLogML : From apy2.log file, All value are in AU
atom 0.000000000000 1.433486338220 -0.887043465608 H 0.454140000000 0.000000000000 0.000000000000 0.003198650000 0.003025234000
atom 0.000000000000 -1.338999994331 -0.887043465608 H 0.450830000000 0.000000000000 0.000000000000 -0.039135903000 -0.026519734000
atom 0.000000000000 0.000000000000 0.221761338834 O -0.904960000000 0.000000000000 0.000000000000 0.035937253000 0.023494499000
energy  -76.41150225577400
charge  0.00000000000000
dipole 0.00000000000000 0.02431399336532 -0.79107033106244
end
begin
comment by xLogML : From apy3.log file, All value are in AU
atom 0.000000000000 1.433486338220 -0.887043465608 H 0.452690000000 0.000000000000 0.000000000000 0.035930634000 -0.029574796000
atom 0.000000000000 -1.433486338220 -0.887043465608 H 0.458320000000 0.000000000000 0.000000000000 0.029281712000 0.021405336000
atom 0.000000000000 0.094486343889 0.221761338834 O -0.911000000000 0.000000000000 0.000000000000 -0.065212346000 0.008169460000
energy  -76.41021608687400
charge  0.00000000000000
dipole 0.00000000000000 -0.04847061460531 -0.78548362061280
end
begin
comment by xLogML : From apz1.log file, All value are in AU
atom 0.000000000000 1.433486338220 -0.792557121719 H 0.456010000000 0.000000000000 0.000000000000 0.024949409000 -0.021125747000
atom 0.000000000000 -1.433486338220 -0.887043465608 H 0.458830000000 0.000000000000 0.000000000000 0.003063974000 -0.001101277000
atom 0.000000000000 0.000000000000 0.221761338834 O -0.914840000000 0.000000000000 0.000000000000 -0.028013383000 0.022227025000
energy  -76.41230337632700
charge  0.00000000000000
dipole 0.00000000000000 0.00660962926436 -0.76691370982246
end
begin
comment by xLogML : From apz2.log file, All value are in AU
atom 0.000000000000 1.433486338220 -0.887043465608 H 0.458830000000 0.000000000000 0.000000000000 -0.003063974000 -0.001101277000
atom 0.000000000000 -1.433486338220 -0.792557121719 H 0.456010000000 0.000000000000 0.000000000000 -0.024949409000 -0.021125747000
atom 0.000000000000 0.000000000000 0.221761338834 O -0.914840000000 0.000000000000 0.000000000000 0.028013383000 0.022227025000
energy  -76.41230337632700
charge  0.00000000000000
dipole 0.00000000000000 -0.00660962926436 -0.76691370982246
end
begin
comment by xLogML : From apz3.log file, All value are in AU
atom 0.000000000000 1.433486338220 -0.887043465608 H 0.455430000000 0.000000000000 0.000000000000 -0.016773026000 0.020636261000
atom 0.000000000000 -1.433486338220 -0.887043465608 H 0.455430000000 0.000000000000 0.000000000000 0.016773026000 0.020636261000
atom 0.000000000000 0.000000000000 0.316247682722 O -0.910860000000 0.000000000000 0.000000000000 0.000000000000 -0.041272522000
energy  -76.41130974437100
charge  0.00000000000000
dipole 0.00000000000000 0.00000000000000 -0.82006614515669
end
