begin
comment by xLogML
atom   0.0000000000000000E+00   0.0000000000000000E+00   2.1016030553100001E-01  O  -9.9414999999999998E-01   0.0000000000000000E+00   0.0000000000000000E+00   0.0000000000000000E+00   0.0000000000000000E+00
atom   0.0000000000000000E+00   1.5129871479679999E+00  -8.4064311185100005E-01  H   5.0310999999999995E-01   0.0000000000000000E+00   0.0000000000000000E+00   0.0000000000000000E+00   0.0000000000000000E+00
atom  -1.5129871479679999E+00   0.0000000000000000E+00  -6.5167042407400000E-01  H   4.9103999999999998E-01   0.0000000000000000E+00   0.0000000000000000E+00   0.0000000000000000E+00   0.0000000000000000E+00
energy   0.0000000000000000E+00
dipole   0.0000000000000000E+00   0.0000000000000000E+00   0.0000000000000000E+00
charge   0.0000000000000000E+00
end
