begin
comment by xLogML
atom   0.0000000000000000E+00   0.0000000000000000E+00   4.8736715558402244E+00  O  -9.9414999999999998E-01   0.0000000000000000E+00   0.0000000000000000E+00   1.7631596124287301E+00   1.1164198640826972E+00
atom   0.0000000000000000E+00   3.5086561226548000E+01  -1.9494730046616219E+01  H   5.0310999999999995E-01   0.0000000000000000E+00   0.0000000000000000E+00  -2.2182669980026895E-01  -4.2204276037633923E-02
atom   0.0000000000000000E+00  -3.5086561226548000E+01  -1.5112404797695278E+01  H   4.9103999999999998E-01   0.0000000000000000E+00   0.0000000000000000E+00  -1.5413329126284612E+00  -1.0742155880450635E+00
energy  -6.4993102730036389E-01
dipole   0.0000000000000000E+00   0.0000000000000000E+00   0.0000000000000000E+00
charge   0.0000000000000000E+00
end
begin
comment by xLogML
atom   0.0000000000000000E+00   0.0000000000000000E+00   4.8736715558402244E+00  O  -9.9490000000000001E-01   0.0000000000000000E+00   0.0000000000000000E+00   0.0000000000000000E+00  -1.0395922936218049E-05
atom   0.0000000000000000E+00   3.5086561226548000E+01  -1.9494730046616219E+01  H   4.9745000000000000E-01   0.0000000000000000E+00   0.0000000000000000E+00   6.7017742198889938E-06   5.1979614681090246E-06
atom   0.0000000000000000E+00  -3.5086561226548000E+01  -1.9494730046616219E+01  H   4.9745000000000000E-01   0.0000000000000000E+00   0.0000000000000000E+00  -6.7017742198889938E-06   5.1979614681090246E-06
energy  -3.0096626954930894E+00
dipole   0.0000000000000000E+00   0.0000000000000000E+00   0.0000000000000000E+00
charge   0.0000000000000000E+00
end
begin
comment by xLogML
atom  -4.3823252489209397E+00   0.0000000000000000E+00   4.8736715558402244E+00  O  -9.9475000000000002E-01   0.0000000000000000E+00   3.4861321828600134E-02   0.0000000000000000E+00  -1.9385015966513314E-01
atom   0.0000000000000000E+00   3.5086561226548000E+01  -1.9494730046616219E+01  H   4.9737999999999999E-01   0.0000000000000000E+00  -1.7430660914300067E-02  -9.1808585785706137E-02   9.6925079832566569E-02
atom   0.0000000000000000E+00  -3.5086561226548000E+01  -1.9494730046616219E+01  H   4.9737999999999999E-01   0.0000000000000000E+00  -1.7430660914300067E-02   9.1808585785706137E-02   9.6925079832566569E-02
energy  -2.9711147839336234E+00
dipole   0.0000000000000000E+00   0.0000000000000000E+00   0.0000000000000000E+00
charge   0.0000000000000000E+00
end
begin
comment by xLogML
atom   0.0000000000000000E+00   0.0000000000000000E+00   4.8736715558402244E+00  O  -9.9568999999999996E-01   0.0000000000000000E+00  -1.5280110604510027E-02   1.2883680371487655E-01  -8.0453328388597159E-02
atom  -4.3823252489209397E+00   3.5086561226548000E+01  -1.9494730046616219E+01  H   4.9824000000000002E-01   0.0000000000000000E+00   1.5425947749851123E-02  -1.2467343272841057E-01   8.4967055054646287E-02
atom   0.0000000000000000E+00  -3.5086561226548000E+01  -1.9494730046616219E+01  H   4.9745000000000000E-01   0.0000000000000000E+00  -1.4586983692265701E-04  -4.1634036780475257E-03  -4.5137266660491386E-03
energy  -2.9926151667944749E+00
dipole   0.0000000000000000E+00   0.0000000000000000E+00   0.0000000000000000E+00
charge   0.0000000000000000E+00
end
begin
comment by xLogML
atom   0.0000000000000000E+00   0.0000000000000000E+00   4.8736715558402244E+00  O  -9.9568999999999996E-01   0.0000000000000000E+00  -1.5280110604510027E-02  -1.2883680371487655E-01  -8.0453328388597159E-02
atom   0.0000000000000000E+00   3.5086561226548000E+01  -1.9494730046616219E+01  H   4.9745000000000000E-01   0.0000000000000000E+00  -1.4586983692265701E-04   4.1634036780475257E-03  -4.5137266660491386E-03
atom  -4.3823252489209397E+00  -3.5086561226548000E+01  -1.9494730046616219E+01  H   4.9824000000000002E-01   0.0000000000000000E+00   1.5425947749851123E-02   1.2467343272841057E-01   8.4967055054646287E-02
energy  -2.9926151667944749E+00
dipole   0.0000000000000000E+00   0.0000000000000000E+00   0.0000000000000000E+00
charge   0.0000000000000000E+00
end
begin
comment by xLogML
atom   0.0000000000000000E+00  -4.3823252489209397E+00   4.8736715558402244E+00  O  -9.7809000000000001E-01   0.0000000000000000E+00   0.0000000000000000E+00   4.3176216372374556E+00   1.0406364300452635E+00
atom   0.0000000000000000E+00   3.5086561226548000E+01  -1.9494730046616219E+01  H   5.0226999999999999E-01   0.0000000000000000E+00   0.0000000000000000E+00  -1.6732949988489336E+00   1.0439851595108252E+00
atom   0.0000000000000000E+00  -3.5086561226548000E+01  -1.9494730046616219E+01  H   4.7582000000000002E-01   0.0000000000000000E+00   0.0000000000000000E+00  -2.6443266383885224E+00  -2.0846215895560887E+00
energy   6.3568025795405063E+00
dipole   0.0000000000000000E+00   0.0000000000000000E+00   0.0000000000000000E+00
charge   0.0000000000000000E+00
end
begin
comment by xLogML
atom   0.0000000000000000E+00   0.0000000000000000E+00   4.8736715558402244E+00  O  -9.6091000000000004E-01   0.0000000000000000E+00   0.0000000000000000E+00  -2.6465762114988589E+00   1.6409683534134587E+00
atom   0.0000000000000000E+00   3.0704235977603865E+01  -1.9494730046616219E+01  H   4.7144000000000003E-01   0.0000000000000000E+00   0.0000000000000000E+00   2.8425673428403848E+00  -1.8554068538558142E+00
atom   0.0000000000000000E+00  -3.5086561226548000E+01  -1.9494730046616219E+01  H   4.8947000000000002E-01   0.0000000000000000E+00   0.0000000000000000E+00  -1.9599109864994441E-01   2.1443850044235552E-01
energy   2.7917146383606615E+00
dipole   0.0000000000000000E+00   0.0000000000000000E+00   0.0000000000000000E+00
charge   0.0000000000000000E+00
end
begin
comment by xLogML
atom   0.0000000000000000E+00   0.0000000000000000E+00   4.8736715558402244E+00  O  -1.0152099999999999E+00   0.0000000000000000E+00   0.0000000000000000E+00  -1.6747350630166706E+00  -6.5481035177743863E-01
atom   0.0000000000000000E+00   3.5086561226548000E+01  -1.9494730046616219E+01  H   5.0344999999999995E-01   0.0000000000000000E+00   0.0000000000000000E+00  -1.3807940034522401E-01  -2.0080732052017222E-01
atom   0.0000000000000000E+00  -3.9468886475468942E+01  -1.9494730046616219E+01  H   5.1175999999999999E-01   0.0000000000000000E+00   0.0000000000000000E+00   1.8128144633618948E+00   8.5561763960602932E-01
energy   1.2878234353181517E+00
dipole   0.0000000000000000E+00   0.0000000000000000E+00   0.0000000000000000E+00
charge   0.0000000000000000E+00
end
begin
comment by xLogML
atom   0.0000000000000000E+00   0.0000000000000000E+00   4.9134630691928355E-01  O  -9.9409999999999998E-01   0.0000000000000000E+00   0.0000000000000000E+00   0.0000000000000000E+00   2.2215431521571865E+00
atom   0.0000000000000000E+00   3.5086561226548000E+01  -1.9494730046616219E+01  H   4.9704999999999999E-01   0.0000000000000000E+00   0.0000000000000000E+00   1.3300660840459357E+00  -1.1107715760785932E+00
atom   0.0000000000000000E+00  -3.5086561226548000E+01  -1.9494730046616219E+01  H   4.9704999999999999E-01   0.0000000000000000E+00   0.0000000000000000E+00  -1.3300660840459357E+00  -1.1107715760785932E+00
energy   1.8854738684708474E+00
dipole   0.0000000000000000E+00   0.0000000000000000E+00   0.0000000000000000E+00
charge   0.0000000000000000E+00
end
begin
comment by xLogML
atom   0.0000000000000000E+00   0.0000000000000000E+00   4.8736715558402244E+00  O  -9.9199000000000004E-01   0.0000000000000000E+00   0.0000000000000000E+00   1.1914255980863901E+00  -1.0383266390416928E+00
atom   0.0000000000000000E+00   3.5086561226548000E+01  -2.3877055295537158E+01  H   4.9880999999999998E-01   0.0000000000000000E+00   0.0000000000000000E+00  -9.9933015906151323E-01   9.9536568365726097E-01
atom   0.0000000000000000E+00  -3.5086561226548000E+01  -1.9494730046616219E+01  H   4.9318000000000001E-01   0.0000000000000000E+00   0.0000000000000000E+00  -1.9209540633329528E-01   4.2960922692850165E-02
energy  -7.6979123240046166E-01
dipole   0.0000000000000000E+00   0.0000000000000000E+00   0.0000000000000000E+00
charge   0.0000000000000000E+00
end
begin
comment by xLogML
atom   0.0000000000000000E+00   0.0000000000000000E+00   4.8736715558402244E+00  O  -9.9199000000000004E-01   0.0000000000000000E+00   0.0000000000000000E+00  -1.1914255980863901E+00  -1.0383266390416928E+00
atom   0.0000000000000000E+00   3.5086561226548000E+01  -1.9494730046616219E+01  H   4.9318000000000001E-01   0.0000000000000000E+00   0.0000000000000000E+00   1.9209540633329528E-01   4.2960922692850165E-02
atom   0.0000000000000000E+00  -3.5086561226548000E+01  -2.3877055295537158E+01  H   4.9880999999999998E-01   0.0000000000000000E+00   0.0000000000000000E+00   9.9933015906151323E-01   9.9536568365726097E-01
energy  -7.6979123240046166E-01
dipole   0.0000000000000000E+00   0.0000000000000000E+00   0.0000000000000000E+00
charge   0.0000000000000000E+00
end
begin
comment by xLogML
atom   4.3823252489209397E+00   0.0000000000000000E+00   4.8736715558402244E+00  O  -9.9475000000000002E-01   0.0000000000000000E+00  -3.4861321828600134E-02   0.0000000000000000E+00  -1.9385015966513314E-01
atom   0.0000000000000000E+00   3.5086561226548000E+01  -1.9494730046616219E+01  H   4.9737999999999999E-01   0.0000000000000000E+00   1.7430660914300067E-02  -9.1808585785706137E-02   9.6925079832566569E-02
atom   0.0000000000000000E+00  -3.5086561226548000E+01  -1.9494730046616219E+01  H   4.9737999999999999E-01   0.0000000000000000E+00   1.7430660914300067E-02   9.1808585785706137E-02   9.6925079832566569E-02
energy  -2.9711147839336234E+00
dipole   0.0000000000000000E+00   0.0000000000000000E+00   0.0000000000000000E+00
charge   0.0000000000000000E+00
end
begin
comment by xLogML
atom   0.0000000000000000E+00   0.0000000000000000E+00   4.8736715558402244E+00  O  -9.9568999999999996E-01   0.0000000000000000E+00   1.5280110604510027E-02   1.2883680371487655E-01  -8.0453328388597159E-02
atom   4.3823252489209397E+00   3.5086561226548000E+01  -1.9494730046616219E+01  H   4.9824000000000002E-01   0.0000000000000000E+00  -1.5425947749851123E-02  -1.2467343272841057E-01   8.4967055054646287E-02
atom   0.0000000000000000E+00  -3.5086561226548000E+01  -1.9494730046616219E+01  H   4.9745000000000000E-01   0.0000000000000000E+00   1.4586983692265701E-04  -4.1634036780475257E-03  -4.5137266660491386E-03
energy  -2.9926151667944749E+00
dipole   0.0000000000000000E+00   0.0000000000000000E+00   0.0000000000000000E+00
charge   0.0000000000000000E+00
end
begin
comment by xLogML
atom   0.0000000000000000E+00   0.0000000000000000E+00   4.8736715558402244E+00  O  -9.9568999999999996E-01   0.0000000000000000E+00   1.5280110604510027E-02  -1.2883680371487655E-01  -8.0453328388597159E-02
atom   0.0000000000000000E+00   3.5086561226548000E+01  -1.9494730046616219E+01  H   4.9745000000000000E-01   0.0000000000000000E+00   1.4586983692265701E-04   4.1634036780475257E-03  -4.5137266660491386E-03
atom   4.3823252489209397E+00  -3.5086561226548000E+01  -1.9494730046616219E+01  H   4.9824000000000002E-01   0.0000000000000000E+00  -1.5425947749851123E-02   1.2467343272841057E-01   8.4967055054646287E-02
energy  -2.9926151667944749E+00
dipole   0.0000000000000000E+00   0.0000000000000000E+00   0.0000000000000000E+00
charge   0.0000000000000000E+00
end
begin
comment by xLogML
atom   0.0000000000000000E+00   4.3823252489209397E+00   4.8736715558402244E+00  O  -9.7809000000000001E-01   0.0000000000000000E+00   0.0000000000000000E+00  -4.3176216372374556E+00   1.0406364300452635E+00
atom   0.0000000000000000E+00   3.5086561226548000E+01  -1.9494730046616219E+01  H   4.7582000000000002E-01   0.0000000000000000E+00   0.0000000000000000E+00   2.6443266383885224E+00  -2.0846215895560887E+00
atom   0.0000000000000000E+00  -3.5086561226548000E+01  -1.9494730046616219E+01  H   5.0226999999999999E-01   0.0000000000000000E+00   0.0000000000000000E+00   1.6732949988489336E+00   1.0439851595108252E+00
energy   6.3568025795405063E+00
dipole   0.0000000000000000E+00   0.0000000000000000E+00   0.0000000000000000E+00
charge   0.0000000000000000E+00
end
begin
comment by xLogML
atom   0.0000000000000000E+00   0.0000000000000000E+00   4.8736715558402244E+00  O  -1.0152099999999999E+00   0.0000000000000000E+00   0.0000000000000000E+00   1.6747350630166706E+00  -6.5481035177743863E-01
atom   0.0000000000000000E+00   3.9468886475468942E+01  -1.9494730046616219E+01  H   5.1175999999999999E-01   0.0000000000000000E+00   0.0000000000000000E+00  -1.8128144633618948E+00   8.5561763960602932E-01
atom   0.0000000000000000E+00  -3.5086561226548000E+01  -1.9494730046616219E+01  H   5.0344999999999995E-01   0.0000000000000000E+00   0.0000000000000000E+00   1.3807940034522401E-01  -2.0080732052017222E-01
energy   1.2878234353181517E+00
dipole   0.0000000000000000E+00   0.0000000000000000E+00   0.0000000000000000E+00
charge   0.0000000000000000E+00
end
begin
comment by xLogML
atom   0.0000000000000000E+00   0.0000000000000000E+00   4.8736715558402244E+00  O  -9.6091000000000004E-01   0.0000000000000000E+00   0.0000000000000000E+00   2.6465762114988589E+00   1.6409683534134587E+00
atom   0.0000000000000000E+00   3.5086561226548000E+01  -1.9494730046616219E+01  H   4.8947000000000002E-01   0.0000000000000000E+00   0.0000000000000000E+00   1.9599109864994441E-01   2.1443850044235552E-01
atom   0.0000000000000000E+00  -3.0704235977603865E+01  -1.9494730046616219E+01  H   4.7144000000000003E-01   0.0000000000000000E+00   0.0000000000000000E+00  -2.8425673428403848E+00  -1.8554068538558142E+00
energy   2.7917146383606615E+00
dipole   0.0000000000000000E+00   0.0000000000000000E+00   0.0000000000000000E+00
charge   0.0000000000000000E+00
end
begin
comment by xLogML
atom   0.0000000000000000E+00   0.0000000000000000E+00   9.2559968047611640E+00  O  -9.9019000000000001E-01   0.0000000000000000E+00   0.0000000000000000E+00   0.0000000000000000E+00  -2.0704629636570093E+00
atom   0.0000000000000000E+00   3.5086561226548000E+01  -1.9494730046616219E+01  H   4.9509999999999998E-01   0.0000000000000000E+00   0.0000000000000000E+00  -8.0558232404666430E-01   1.0352314654827139E+00
atom   0.0000000000000000E+00  -3.5086561226548000E+01  -1.9494730046616219E+01  H   4.9509999999999998E-01   0.0000000000000000E+00   0.0000000000000000E+00   8.0558232404666430E-01   1.0352314654827139E+00
energy   1.6535733024600483E+00
dipole   0.0000000000000000E+00   0.0000000000000000E+00   0.0000000000000000E+00
charge   0.0000000000000000E+00
end
begin
comment by xLogML
atom   0.0000000000000000E+00   0.0000000000000000E+00   4.8736715558402244E+00  O  -9.9414999999999998E-01   0.0000000000000000E+00   0.0000000000000000E+00  -1.7631596124287301E+00   1.1164198640826972E+00
atom   0.0000000000000000E+00   3.5086561226548000E+01  -1.5112404797695278E+01  H   4.9103999999999998E-01   0.0000000000000000E+00   0.0000000000000000E+00   1.5413329126284612E+00  -1.0742155880450635E+00
atom   0.0000000000000000E+00  -3.5086561226548000E+01  -1.9494730046616219E+01  H   5.0310999999999995E-01   0.0000000000000000E+00   0.0000000000000000E+00   2.2182669980026895E-01  -4.2204276037633923E-02
energy  -6.4993102730036389E-01
dipole   0.0000000000000000E+00   0.0000000000000000E+00   0.0000000000000000E+00
charge   0.0000000000000000E+00
end
begin
comment by xLogML
atom   0.0000000000000000E+00   0.0000000000000000E+00   4.8736715558402244E+00  O  -9.9414999999999998E-01   0.0000000000000000E+00   0.0000000000000000E+00   1.7631596124287301E+00   1.1164198640826972E+00
atom   0.0000000000000000E+00   3.5086561226548000E+01  -1.9494730046616219E+01  H   5.0310999999999995E-01   0.0000000000000000E+00   0.0000000000000000E+00  -2.2182669980026895E-01  -4.2204276037633923E-02
atom   0.0000000000000000E+00  -3.5086561226548000E+01  -1.5112404797695278E+01  H   4.9103999999999998E-01   0.0000000000000000E+00   0.0000000000000000E+00  -1.5413329126284612E+00  -1.0742155880450635E+00
energy  -6.4993102730036389E-01
dipole   0.0000000000000000E+00   0.0000000000000000E+00   0.0000000000000000E+00
charge   0.0000000000000000E+00
end
