begin
comment by xLogML
atom   0.0000000000000000E+00   0.0000000000000000E+00   2.1016030553100001E-01  O  -1.0152099999999999E+00   0.0000000000000000E+00   0.0000000000000000E+00  -5.1228327999999997E-02  -2.0029938000000001E-02
atom   0.0000000000000000E+00   1.5129871479679999E+00  -8.4064311185100005E-01  H   5.0344999999999995E-01   0.0000000000000000E+00   0.0000000000000000E+00  -4.2236990000000000E-03  -6.1424779999999998E-03
atom   0.0000000000000000E+00  -1.7019598357450001E+00  -8.4064311185100005E-01  H   5.1175999999999999E-01   0.0000000000000000E+00   0.0000000000000000E+00   5.5452027000000001E-02   2.6172415000000001E-02
energy  -7.6395528401199996E+01
dipole   0.0000000000000000E+00   0.0000000000000000E+00   0.0000000000000000E+00
charge   0.0000000000000000E+00
end
