begin
comment by runHNNP
atom   1.1338356803530001E+00  -8.4005696584699996E-01  -3.6995546469000001E-01  H   0.0000000000000000E+00   0.0000000000000000E+00  -2.6108171007612667E-04  -1.0966218892800009E-02  -3.9805993830410663E-03
atom   1.8897261339199997E-01   1.8454120560809999E+00  -1.3562451079580000E+00  H   0.0000000000000000E+00   0.0000000000000000E+00   3.3562653043209704E-02  -3.4613734926924156E-02   5.4282682043190589E-02
atom   1.1338356803530001E+00   8.8437293341399992E-01   1.7618105719200000E-01  O   0.0000000000000000E+00   0.0000000000000000E+00  -3.3301571333133571E-02   4.5579953819724135E-02  -5.0302082660149516E-02
energy  -7.6546999057793315E+01
dipole   0.0000000000000000E+00   0.0000000000000000E+00   0.0000000000000000E+00
charge   0.0000000000000000E+00
end
