begin
comment Generated from -, TIMESTEP: 20000000
lattice   4.2888632301285426E+01   0.0000000000000000E+00   0.0000000000000000E+00
lattice   0.0000000000000000E+00   4.4571144109503649E+01   0.0000000000000000E+00
lattice   0.0000000000000000E+00   0.0000000000000000E+00   4.2022085732793251E+01
atom   3.3161137848673654E+01   1.3927124396757034E+01   1.0505195708760620E+00  O   0.0000000000000000E+00   0.0000000000000000E+00  -2.8966030062366754E-02   2.7209599774412423E-03   3.9737021445979048E-03
atom   3.2223644714191565E+01   1.4287155019578089E+01   2.6234312277860092E+00  H   0.0000000000000000E+00   0.0000000000000000E+00   7.9877423752479741E-03   3.3297604748884998E-03  -1.0163833042173850E-02
atom   3.4910646302419877E+01   1.4014769894796297E+01   1.5894694639506219E+00  H   0.0000000000000000E+00   0.0000000000000000E+00   1.1806902826331738E-02  -9.4962509650420874E-03   6.6334365831265344E-03
atom   1.7330051657448287E+01   2.4407356556652555E+01   4.7445732228086959E+00  O   0.0000000000000000E+00   0.0000000000000000E+00   1.5811460277845243E-03   1.5010841412183408E-03  -1.9125345585991289E-02
atom   1.8487357735697664E+01   2.2963605791193348E+01   4.4120381152198815E+00  H   0.0000000000000000E+00   0.0000000000000000E+00  -5.5904666061025688E-03   8.9440761861618728E-03  -2.2307010253202861E-03
atom   1.7365124974473058E+01   2.5403998119091266E+01   3.1352446535935612E+00  H   0.0000000000000000E+00   0.0000000000000000E+00   3.0173737498853648E-04  -1.0125957462634337E-02   1.3857355934526888E-02
atom   3.4769483760299728E+01   3.2926619908541518E+01   1.2372660627730504E+01  O   0.0000000000000000E+00   0.0000000000000000E+00  -7.8096712558967877E-04  -1.6708813976931509E-03  -4.6967806593604996E-03
atom   3.4668761357421488E+01   3.4522871572917659E+01   1.3292182466689656E+01  H   0.0000000000000000E+00   0.0000000000000000E+00   2.2427460962975566E-03  -5.0824240654465643E-03   2.8314700994836470E-03
atom   3.5955475881245007E+01   3.1813193271095756E+01   1.3236681210169323E+01  H   0.0000000000000000E+00   0.0000000000000000E+00   1.4370209345337737E-03   6.0023390484798614E-03   6.1252679756137313E-04
atom   1.0812424019943743E+01   3.0812961229004717E+01   1.9094964502678618E+01  O   0.0000000000000000E+00   0.0000000000000000E+00  -2.3470427905371407E-03  -3.6377522521246264E-02  -2.5116071793401799E-02
atom   1.1842551529455680E+01   2.9323101145905188E+01   1.8553784732767351E+01  H   0.0000000000000000E+00   0.0000000000000000E+00  -5.4041601211747463E-03   2.6031776120279834E-02   1.3699383192364398E-02
atom   1.1789072279897438E+01   3.2006890199707755E+01   2.0046309329714120E+01  H   0.0000000000000000E+00   0.0000000000000000E+00   2.2318059210811127E-02   1.1576413172309447E-02   1.1881649814830980E-02
atom   2.1386254315196847E+01   2.1217120899259594E+01   3.0228626404759456E+00  O   0.0000000000000000E+00   0.0000000000000000E+00  -3.7211047627944138E-03  -3.0535038018364696E-02  -6.9418304222511381E-03
atom   2.1346381093794772E+01   1.9282230311885673E+01   3.2870841483640416E+00  H   0.0000000000000000E+00   0.0000000000000000E+00  -1.3953553121442766E-03   3.0014416067258683E-02   2.7480041531564594E-03
atom   2.1361687875470448E+01   2.1399101525848234E+01   1.1655887745545197E+00  H   0.0000000000000000E+00   0.0000000000000000E+00  -1.0411398826098380E-03   2.7882151104234788E-04   4.4191031441445693E-03
atom   1.4792810865244368E+01   4.2842579845182939E+01   8.0803933814725681E+00  O   0.0000000000000000E+00   0.0000000000000000E+00  -3.3665987871872539E-03  -6.8577288740309704E-03  -2.8876784186482082E-02
atom   1.3450538393116526E+01   4.1982376509532386E+01   7.0313686106326330E+00  H   0.0000000000000000E+00   0.0000000000000000E+00  -3.9991664005394507E-03   2.4098585882656939E-03   1.9900867578244705E-02
atom   1.5871731103505200E+01   4.3069535953732220E+01   6.5522285496611943E+00  H   0.0000000000000000E+00   0.0000000000000000E+00   9.5984017107607154E-03   3.9723373179982435E-03   1.6757485584924729E-02
atom   8.1785426333084335E+00   1.6195872900012731E+01   3.7307067826709321E+01  O   0.0000000000000000E+00   0.0000000000000000E+00   3.2219750123846966E-02  -2.5232964368515010E-02   1.1869876000272327E-02
atom   1.0031078955814927E+01   1.5612023114022840E+01   3.7156834599151715E+01  H   0.0000000000000000E+00   0.0000000000000000E+00  -3.2139503170264018E-02   1.5163248721495982E-02  -5.8178449476993487E-03
atom   7.6761778381648798E+00   1.5178538836419849E+01   3.8874028736027078E+01  H   0.0000000000000000E+00   0.0000000000000000E+00   2.4854739876094311E-03   1.2171976609879748E-02  -1.3594761635027736E-02
atom   3.3509792320175251E+01   3.0109794134989830E+01   3.7570684622234914E+01  O   0.0000000000000000E+00   0.0000000000000000E+00  -2.4366984114817341E-02   4.0565735907979964E-03  -1.8630608770253708E-02
atom   3.4543094569590288E+01   2.9481082250607272E+01   3.8921460861960362E+01  H   0.0000000000000000E+00   0.0000000000000000E+00   3.2145429403138272E-03  -4.6021390788914453E-03   1.6444433411725641E-02
atom   3.1676946943972524E+01   3.0082582078677511E+01   3.8038769785329478E+01  H   0.0000000000000000E+00   0.0000000000000000E+00   1.7672749227715126E-02  -5.4774642137957862E-03   6.2134679695512538E-03
atom   1.6668307360264386E+01   3.7874111896825191E+01   2.9786713708618439E+01  O   0.0000000000000000E+00   0.0000000000000000E+00  -8.5670070269519803E-03  -1.6322015049421015E-02   1.5305810533427144E-02
atom   1.4948051867053890E+01   3.7695343804662308E+01   3.0602508480148206E+01  H   0.0000000000000000E+00   0.0000000000000000E+00   1.5623918606992360E-02   1.2907452028740343E-02  -8.9209921928810401E-03
atom   1.7528775257573535E+01   3.6826447728800872E+01   3.1080987136973160E+01  H   0.0000000000000000E+00   0.0000000000000000E+00   2.5244839795231819E-03   2.4442415972083594E-03  -1.0719182793553324E-02
atom   2.1470914045946287E+01   2.4488614780362951E+01   2.9709423909786921E+01  O   0.0000000000000000E+00   0.0000000000000000E+00  -2.2891817600688102E-02   2.5787240147435258E-02   3.8524086274509504E-02
atom   2.0239946443040363E+01   2.4828954456880229E+01   3.1156198237058600E+01  H   0.0000000000000000E+00   0.0000000000000000E+00   1.9217837385631605E-02   3.2269207224853561E-03  -2.2793479210423406E-02
atom   2.1131708205108687E+01   2.2764806602022794E+01   2.9374375466441478E+01  H   0.0000000000000000E+00   0.0000000000000000E+00  -1.1030583846457984E-03  -3.1710952401599594E-02  -1.1400678629961180E-02
atom   1.7168839121059122E+01   3.4068581410592550E+01   2.5587175323697000E+01  O   0.0000000000000000E+00   0.0000000000000000E+00  -1.9716380198621618E-02  -2.8374406181889433E-03   1.1055440948111410E-02
atom   1.7193197690910914E+01   3.5648203485000060E+01   2.6524668458179079E+01  H   0.0000000000000000E+00   0.0000000000000000E+00  -5.6175370688723606E-03   4.3597476714221763E-03   9.1269257814505008E-03
atom   1.8700122000989616E+01   3.4153997031795107E+01   2.4662343354304685E+01  H   0.0000000000000000E+00   0.0000000000000000E+00   2.3360267204542068E-02  -3.0934051191527784E-03  -1.8122620227859890E-02
atom   6.3288786945237927E+00   2.4841048704130152E+01   4.0656040479257477E+01  O   0.0000000000000000E+00   0.0000000000000000E+00   1.2679921090770185E-02   1.5581390888057332E-03  -2.7633020507912508E-02
atom   7.4482579692878730E+00   2.5986978631060069E+01   4.1613942655973801E+01  H   0.0000000000000000E+00   0.0000000000000000E+00  -6.2061581015624189E-03  -8.0051696813360895E-03  -9.6006017186329694E-03
atom   6.8276530100150259E+00   2.4989392205554950E+01   3.8807132430925954E+01  H   0.0000000000000000E+00   0.0000000000000000E+00  -6.5091617379989348E-03   4.6328213267968158E-03   3.6544684670864865E-02
atom   1.2172081972493343E+01   1.4276137916223862E+01   2.3444414861715078E+01  O   0.0000000000000000E+00   0.0000000000000000E+00  -3.4555309289341350E-03  -1.6583912379098047E-02   2.4679525126150455E-02
atom   1.2115144524112083E+01   1.3810925136851163E+01   2.1647852227262117E+01  H   0.0000000000000000E+00   0.0000000000000000E+00  -1.7677000842540444E-03  -6.1042096360707551E-04  -5.6590389500863238E-03
atom   1.1244396516640496E+01   1.2865230590952731E+01   2.4343735528314600E+01  H   0.0000000000000000E+00   0.0000000000000000E+00   6.0034635891685270E-03   1.9380785153974397E-02  -1.1277765663547379E-02
atom   6.0124062590637779E+00   2.5971957785093225E+00   3.4791086453499396E+01  O   0.0000000000000000E+00   0.0000000000000000E+00  -6.7148057925522063E-04   3.0152567310153373E-03  -2.4082803307522847E-02
atom   5.1885612542082900E+00   3.7328078007541547E+00   3.3564465220698928E+01  H   0.0000000000000000E+00   0.0000000000000000E+00   3.5386176797931003E-03   7.6533010428282726E-03   1.1232739799243793E-02
atom   6.2967911447888492E+00   1.2264451335601871E+00   3.3571835152616842E+01  H   0.0000000000000000E+00   0.0000000000000000E+00   2.6682342751926953E-03  -8.4385940568728647E-03   6.2721569092616192E-03
atom   2.1949203730157969E+01   1.5764448423894489E+01   1.7710022014472148E+01  O   0.0000000000000000E+00   0.0000000000000000E+00  -2.7681629775160848E-03   3.1378320682778488E-02  -3.6782644500318117E-02
atom   2.1741522828163248E+01   1.7518378836791477E+01   1.6935253197285483E+01  H   0.0000000000000000E+00   0.0000000000000000E+00   5.7198933874009891E-03  -3.4183493487981095E-02   8.6111398733362560E-03
atom   2.2147624974101969E+01   1.6219116531446168E+01   1.9439707241085323E+01  H   0.0000000000000000E+00   0.0000000000000000E+00   3.7422675183335146E-03  -1.3246518934634795E-03   2.4902561884752764E-02
atom   3.0637597570932535E+01   3.1710867077793545E+00   2.2652997557298441E+01  O   0.0000000000000000E+00   0.0000000000000000E+00   1.1165308825245017E-02   7.6696438749757484E-03  -6.0811050467589535E-02
atom   3.1780314963436680E+01   1.7544610712303657E+00   2.2845560650230759E+01  H   0.0000000000000000E+00   0.0000000000000000E+00   7.0506325792730985E-03  -1.7059873339893169E-02   1.8589313080370200E-02
atom   3.0807483950271251E+01   3.1914957500135945E+00   2.0691272858838765E+01  H   0.0000000000000000E+00   0.0000000000000000E+00  -1.4680373323693797E-02   1.2473915385042189E-02   4.0820406744700888E-02
atom   1.0923785580949650E+01   4.3691255851423428E+01   1.0872577366238267E+00  O   0.0000000000000000E+00   0.0000000000000000E+00  -2.2135890029494718E-02  -2.7171684714111161E-02  -8.5594001968856744E-03
atom   1.1451208144614130E+01   4.3235831853418631E+01   4.1429127440185965E+01  H   0.0000000000000000E+00   0.0000000000000000E+00   1.2537824032253534E-03  -1.9989086221817013E-03  -6.4080875630334730E-03
atom   1.1666769204582621E+01   7.1029478627785880E-01   1.4291696652835963E+00  H   0.0000000000000000E+00   0.0000000000000000E+00   1.8794114475506361E-02   3.5240983887509583E-02   5.8335014065085773E-03
atom   1.3203655596858692E+00   8.3182849537773382E+00   3.9203219028360834E+01  O   0.0000000000000000E+00   0.0000000000000000E+00  -4.1753223452311340E-02  -1.8466888871425776E-02  -5.0907648802221310E-02
atom   2.0502080277913537E+00   9.4635156820381194E+00   4.0301527856744201E+01  H   0.0000000000000000E+00   0.0000000000000000E+00   2.8912002639994210E-02   3.3218085162976224E-02   4.1257068140038898E-02
atom   2.1436077419049941E+00   6.7184617070101869E+00   3.9192636562017157E+01  H   0.0000000000000000E+00   0.0000000000000000E+00   1.4213990825551760E-02  -1.8396988927486632E-02   5.7342875603850242E-03
atom   2.3572478478233169E+01   3.4889478442680876E+01   8.0552033321223426E+00  O   0.0000000000000000E+00   0.0000000000000000E+00  -1.6393511036667481E-02   3.5117198454429996E-02  -9.0435010280094479E-03
atom   2.3869543426309324E+01   3.6758228615406793E+01   7.8609961774544903E+00  H   0.0000000000000000E+00   0.0000000000000000E+00  -1.0159326381240456E-03  -2.5785045874619512E-02   1.0730212040317396E-03
atom   2.1798970502600369E+01   3.4656097265280074E+01   7.3588959439695296E+00  H   0.0000000000000000E+00   0.0000000000000000E+00   2.3488930852642174E-02  -5.6201673215324714E-03   1.2159212949806144E-02
atom   2.7830976318497964E+01   2.2015152245141028E+01   2.4038922703093959E+01  O   0.0000000000000000E+00   0.0000000000000000E+00  -1.8437719563213061E-02  -1.2001577180370194E-02  -2.9089922814626093E-02
atom   2.6856255579199726E+01   2.3569074044142472E+01   2.4296870320221164E+01  H   0.0000000000000000E+00   0.0000000000000000E+00  -3.0985497940034254E-03  -9.5094955932095856E-04   3.5815933231476667E-03
atom   2.6941104282562449E+01   2.1058194931491112E+01   2.2608211047951077E+01  H   0.0000000000000000E+00   0.0000000000000000E+00   1.8912803491315560E-02   7.4407460612150138E-03   2.3191721719621437E-02
atom   3.5230198991476364E+01   5.9576579659449056E+00   6.2724734929614812E+00  O   0.0000000000000000E+00   0.0000000000000000E+00   2.1346869712741801E-02  -4.0678904719288998E-02   3.3573879738530057E-02
atom   3.4955432811767253E+01   4.1170836098590344E+00   5.9268236860110317E+00  H   0.0000000000000000E+00   0.0000000000000000E+00   2.4596830753303512E-04   2.9837031325591144E-02  -1.0148028881857887E-02
atom   3.4443694975005009E+01   7.0811757409398162E+00   5.1366724981033682E+00  H   0.0000000000000000E+00   0.0000000000000000E+00  -1.9713079803084541E-02   9.9925420170461857E-03  -3.3024523410372847E-02
atom   1.1248856270313906E+01   1.8720547013433528E+01   2.5842099379011724E+01  O   0.0000000000000000E+00   0.0000000000000000E+00  -1.1753428130170534E-02   1.4988258978915691E-02   1.0576261890491167E-02
atom   1.1093350706845792E+01   1.7378728075577563E+01   2.4563321704945963E+01  H   0.0000000000000000E+00   0.0000000000000000E+00   6.5219878180686978E-03  -9.9935130337086790E-03   9.1315499567506467E-03
atom   1.0620276666760642E+01   1.8087923395956068E+01   2.7502790704516361E+01  H   0.0000000000000000E+00   0.0000000000000000E+00   5.8602949747872737E-03  -4.0311292414847866E-03  -1.5623719620943869E-02
atom   3.8829371384007239E+01   2.8258240470072391E+01   1.4155749514856602E+01  O   0.0000000000000000E+00   0.0000000000000000E+00  -2.0812134689646000E-02  -1.6926982786908656E-02   6.4013138176671827E-03
atom   3.7436265278907086E+01   2.6979084850780069E+01   1.4620697732570715E+01  H   0.0000000000000000E+00   0.0000000000000000E+00   2.0447353791232224E-02   1.9438833562403380E-02  -1.0363131064049584E-02
atom   3.8812174876198760E+01   2.8048669841944868E+01   1.2323867898981607E+01  H   0.0000000000000000E+00   0.0000000000000000E+00   4.3992269313434165E-03   5.3457552190847536E-03  -5.6009584076510081E-03
atom   1.0617026337812225E+01   2.0665320868481995E+01   4.0269213539873327E+01  O   0.0000000000000000E+00   0.0000000000000000E+00   1.0734179143725941E-02  -3.9062699944098708E-03   6.3064219619847943E-03
atom   9.6774734018453934E+00   1.9278261887006789E+01   3.9547527129757000E+01  H   0.0000000000000000E+00   0.0000000000000000E+00  -3.0000773900880004E-03  -1.1539510295934344E-02  -6.0034870660697903E-03
atom   9.4924692134442719E+00   2.2077324234910151E+01   4.0053217842894277E+01  H   0.0000000000000000E+00   0.0000000000000000E+00  -4.0711029862455375E-03   1.3694237396381866E-02   2.9397497751480492E-03
atom   1.3983006525555584E+01   3.1351911122079272E+01   3.1452979966200569E+00  O   0.0000000000000000E+00   0.0000000000000000E+00  -4.9320471661474805E-03  -1.2301561847613525E-02  -1.0871145447099351E-02
atom   1.4141384472745550E+01   2.9790241445933347E+01   2.0856926491625738E+00  H   0.0000000000000000E+00   0.0000000000000000E+00  -3.2364604287299496E-03   2.4174929639706529E-02   1.2956617224931945E-02
atom   1.2210556796557151E+01   3.1907490605122462E+01   3.0049858312596567E+00  H   0.0000000000000000E+00   0.0000000000000000E+00   9.8427795243830832E-03  -8.1530824972338729E-03   2.8768266376694000E-04
atom   3.1145744928042440E+01   1.2976648843742614E+01   1.5484831698577498E+01  O   0.0000000000000000E+00   0.0000000000000000E+00   1.4126318898921766E-02   4.2155251462964553E-02   2.5987133987938334E-02
atom   3.1827180171530134E+01   1.2580259890126491E+01   1.3827409599282600E+01  H   0.0000000000000000E+00   0.0000000000000000E+00   1.4716259598474212E-03   4.6534643301778854E-03  -7.9669895840396125E-03
atom   3.1486840495012842E+01   1.4948332398922151E+01   1.5859772260586345E+01  H   0.0000000000000000E+00   0.0000000000000000E+00  -3.0922583020682633E-03  -4.2895923698286431E-02  -1.6216914214891191E-02
atom   7.2263663267744978E+00   1.4089281796212603E+01   4.1727893141781628E+01  O   0.0000000000000000E+00   0.0000000000000000E+00   2.2023008062043723E-03   2.1205156666676077E-03   1.8070271356867874E-02
atom   7.5582211329555058E+00   1.5519842273264857E+01   8.3635879797197077E-01  H   0.0000000000000000E+00   0.0000000000000000E+00  -7.8698971712468403E-03   1.1064453070527116E-03  -2.4875169380704758E-03
atom   8.2760147072382590E+00   1.2803417649148843E+01   5.7828267946774048E-01  H   0.0000000000000000E+00   0.0000000000000000E+00   2.5888879535085618E-03  -4.6169650193800208E-03  -9.4959101389198823E-03
atom   3.4405900452349009E+01   3.5290856273287595E+01   4.1845245134628513E+01  O   0.0000000000000000E+00   0.0000000000000000E+00  -3.8486220326917640E-02  -3.4676660748040086E-02  -1.1511307176070885E-03
atom   3.6000073417979088E+01   3.5196747911874141E+01   6.0304754043808451E-01  H   0.0000000000000000E+00   0.0000000000000000E+00   3.2335026156892745E-02   5.4337366384083876E-03   1.3661776664545842E-02
atom   3.3610514723053491E+01   3.3709533445360549E+01   5.8080735358116131E-01  H   0.0000000000000000E+00   0.0000000000000000E+00   3.2790899191057683E-03   2.4892126366977949E-02  -1.2568259127435864E-02
atom   8.9727945269242735E+00   4.1836678624693498E+01   2.4126039077816039E+01  O   0.0000000000000000E+00   0.0000000000000000E+00   2.5030500441386564E-03   1.8911265768599833E-03   1.8629970636059999E-02
atom   9.2063835741996805E+00   4.1187746670689990E+01   2.2405254461288362E+01  H   0.0000000000000000E+00   0.0000000000000000E+00  -1.3943686465236244E-02   7.6534981561448357E-03  -7.9133428372063920E-04
atom   7.3869174590171847E+00   4.2776439430534950E+01   2.4369624776333957E+01  H   0.0000000000000000E+00   0.0000000000000000E+00   4.3761635016959484E-03  -8.4206934819973968E-03  -1.5046124569989754E-02
atom   2.8480475190341323E+01   2.9562907392157513E+01   3.9904496396242912E+01  O   0.0000000000000000E+00   0.0000000000000000E+00  -1.9496959144371190E-02  -1.3664552111707675E-04  -2.5130941472000158E-02
atom   2.9338977772472365E+01   2.9289841965967916E+01   4.1459741003537317E+01  H   0.0000000000000000E+00   0.0000000000000000E+00   1.2492703937165336E-02  -6.4115391428000703E-03   2.0907213938997592E-02
atom   2.7514636163867245E+01   2.8023158539152071E+01   3.9517102539018921E+01  H   0.0000000000000000E+00   0.0000000000000000E+00   8.5278242974820718E-03   8.0064493508360465E-03   7.2069642279394769E-03
atom   6.7747595755579537E+00   3.8246106962855779E+00   2.7079681023382442E+01  O   0.0000000000000000E+00   0.0000000000000000E+00   4.0656542257231964E-03  -8.3118164064432190E-03  -1.0982546547896745E-02
atom   8.6592322697087685E+00   3.8139337436352587E+00   2.7380903368950754E+01  H   0.0000000000000000E+00   0.0000000000000000E+00  -1.4618114275274348E-02  -1.4932916804983334E-03  -1.0118792485305344E-02
atom   6.2503605737059535E+00   3.2914244679160589E+00   2.5346613186991558E+01  H   0.0000000000000000E+00   0.0000000000000000E+00   1.1059418105611849E-02   8.9558978751449244E-03   2.2280277965859567E-02
atom   1.7628855153566622E+01   2.0690454226048232E+01   3.2966366899667719E+01  O   0.0000000000000000E+00   0.0000000000000000E+00  -8.9153672865265095E-03   1.8090993896752800E-02   1.5716693389517453E-02
atom   1.7356999152102016E+01   2.0720500871559750E+01   3.1175662416226441E+01  H   0.0000000000000000E+00   0.0000000000000000E+00  -1.3611446885093819E-02  -6.5722791719422264E-03  -1.7378628383666831E-02
atom   1.9291303924374766E+01   1.9955728705615595E+01   3.3009263682882278E+01  H   0.0000000000000000E+00   0.0000000000000000E+00   1.9258513826639821E-02  -1.4882587251901194E-02   3.6679771852255183E-03
atom   3.1969476549329972E+01   3.0644019712732387E+01   2.3311661840871611E+00  O   0.0000000000000000E+00   0.0000000000000000E+00  -6.7574382982373074E-03   6.2631963118609402E-03   1.1402953285180255E-02
atom   3.3336504433797487E+01   2.9421933822650626E+01   2.1627159966093688E+00  H   0.0000000000000000E+00   0.0000000000000000E+00  -2.1024080820553400E-03   1.4547272197758176E-03   9.0901540214721951E-03
atom   3.1420322135138274E+01   3.0871920684348073E+01   4.1613848409652894E+00  H   0.0000000000000000E+00   0.0000000000000000E+00   9.3615211499172551E-03  -1.0558471433216598E-02  -2.7201690035884282E-02
atom   2.5851110249163405E+01   3.2370662480271747E+01   2.1599853183489003E+01  O   0.0000000000000000E+00   0.0000000000000000E+00   1.0735288972922002E-02   1.1507124288644904E-02   2.5927032643165275E-03
atom   2.6243228421719405E+01   3.2447385361263436E+01   1.9782125616348679E+01  H   0.0000000000000000E+00   0.0000000000000000E+00   3.0082067547570076E-03   1.1046938331893789E-03  -1.9603060699773830E-03
atom   2.6638937073927725E+01   3.3955008870011270E+01   2.2309256373742123E+01  H   0.0000000000000000E+00   0.0000000000000000E+00  -5.6351093648261096E-03  -1.4692907240889175E-02  -7.1762604277607316E-03
atom   2.5183092061218602E+01   3.8952389628200869E+01   3.6452155724230614E+01  O   0.0000000000000000E+00   0.0000000000000000E+00   5.7276387393466527E-03   2.0269528495257139E-02   8.1417925545206309E-03
atom   2.6229433420949967E+01   4.0403132380351423E+01   3.7108646582765324E+01  H   0.0000000000000000E+00   0.0000000000000000E+00  -1.0051992579892165E-02  -1.5886695603326270E-02  -1.8385315509115647E-03
atom   2.6398941855062127E+01   3.7854647717657350E+01   3.5649400063017154E+01  H   0.0000000000000000E+00   0.0000000000000000E+00   6.0893511352824248E-03  -1.2871375358361305E-02   6.5659359848800408E-04
atom   2.4760738270537807E+01   1.8415337345725003E+01   9.1928940531132550E+00  O   0.0000000000000000E+00   0.0000000000000000E+00   3.8666760488647825E-02   1.6754047109946749E-03  -1.3040876008593171E-02
atom   2.5055913492481164E+01   1.6590485511064024E+01   9.2194636025404275E+00  H   0.0000000000000000E+00   0.0000000000000000E+00  -7.4454985083129204E-03   8.6684318126738268E-04   8.2045939361661911E-03
atom   2.3237996952727567E+01   1.8967931061478374E+01   9.9905663510294644E+00  H   0.0000000000000000E+00   0.0000000000000000E+00  -2.7405337596411668E-02  -5.1016410125050210E-03   4.5572310781383761E-03
atom   2.5626988729813331E+01   1.9134475102350954E+00   3.2816133672110119E+01  O   0.0000000000000000E+00   0.0000000000000000E+00   4.6696946415580413E-03  -7.3545208449986074E-03  -8.1979766809417293E-03
atom   2.6705833379028849E+01   2.4444870097177551E+00   3.1348950302604194E+01  H   0.0000000000000000E+00   0.0000000000000000E+00  -9.9347988530381071E-03  -3.7883715036155069E-03   1.7231512483701264E-02
atom   2.5636248387864047E+01   2.4643563787902226E-02   3.2902872101605645E+01  H   0.0000000000000000E+00   0.0000000000000000E+00  -1.2796812044637519E-03   1.2894887726334544E-02  -7.3511896035514538E-03
atom   4.8133372332795217E+00   1.4626115196018425E+01   2.1991782383431723E+01  O   0.0000000000000000E+00   0.0000000000000000E+00  -2.3348428173350189E-02  -1.5003294120708817E-02  -1.8023244128341016E-02
atom   5.5141610668897281E+00   1.5347801606134743E+01   2.3497327193433485E+01  H   0.0000000000000000E+00   0.0000000000000000E+00   5.2866009071709586E-04   9.0687436043610360E-04   1.2136276204321301E-02
atom   3.1632850659025458E+00   1.3788607471222793E+01   2.2463458026178600E+01  H   0.0000000000000000E+00   0.0000000000000000E+00   1.9505087337681304E-02   9.9067868227164235E-03   6.6504499558086008E-03
atom   2.2299181009952523E+01   9.1074937554075175E-01   4.0301716829357481E+01  O   0.0000000000000000E+00   0.0000000000000000E+00  -1.8505213537248686E-02   2.9693469124320183E-02  -2.9121031688174669E-02
atom   2.2998379679088529E+01   4.4334518627028551E+01   4.1462386620123247E+01  H   0.0000000000000000E+00   0.0000000000000000E+00   1.4407763407182458E-02  -2.9822952277251850E-02   2.4092676211612998E-02
atom   2.0444603783222608E+01   7.1219018158905745E-01   4.0454406700887724E+01  H   0.0000000000000000E+00   0.0000000000000000E+00   3.7988803773269923E-03  -3.2189102043927026E-03  -7.8316738968492894E-04
atom   3.2589052082222261E+00   3.9008514494345043E+01   2.9242472582372038E+01  O   0.0000000000000000E+00   0.0000000000000000E+00  -5.7702517558583493E-04   1.5327088534861080E-03   8.8007307547925131E-04
atom   1.4286714335350355E+00   3.8886249213552858E+01   2.8786103721300844E+01  H   0.0000000000000000E+00   0.0000000000000000E+00   9.1322678453799461E-03   3.6929396048884697E-03  -3.6111109226021625E-03
atom   3.8021636768795695E+00   3.7336862757270147E+01   2.9817138299356518E+01  H   0.0000000000000000E+00   0.0000000000000000E+00  -3.4774525025701212E-03  -1.5112370503056907E-03   7.5889319787923277E-03
atom   4.0625367100620373E+01   4.4396123698957837E+01   2.6116487613494282E+01  O   0.0000000000000000E+00   0.0000000000000000E+00   1.1196463054624002E-02  -3.3492674453981401E-02   3.2324362939029246E-02
atom   4.0619131004382126E+01   4.2464445646009658E+01   2.6206816522642114E+01  H   0.0000000000000000E+00   0.0000000000000000E+00   1.7426490278531141E-03   2.7513229663788993E-02   5.9778725707021422E-03
atom   4.0172777691814773E+01   1.5195724794383741E-01   2.4435009300528840E+01  H   0.0000000000000000E+00   0.0000000000000000E+00  -8.7737019574145869E-03   1.1475234327529000E-02  -3.4210837135970729E-02
atom   1.2784957951883042E+01   4.3024182526545033E+01   2.7778312774678600E+01  O   0.0000000000000000E+00   0.0000000000000000E+00   8.9212225268392054E-03  -7.3519766824863752E-03  -4.8510783290107024E-02
atom   1.1338580467099250E+01   4.2646993190438153E+01   2.6497078456640203E+01  H   0.0000000000000000E+00   0.0000000000000000E+00   3.0332445245910097E-02   2.1605612933534254E-03   1.9952684101359135E-02
atom   1.4459519867202433E+01   4.2777384293601351E+01   2.6754648128540836E+01  H   0.0000000000000000E+00   0.0000000000000000E+00  -3.4510449226830102E-02   4.8894065310685500E-03   1.9790901422494362E-02
atom   6.4074067383341138E-01   1.9514990356451563E+00   3.0630476426913642E+01  O   0.0000000000000000E+00   0.0000000000000000E+00  -4.7461523936231147E-02   3.2101986859866090E-04  -1.8079255722235090E-02
atom   4.2311947674144371E+01   3.1849006058101224E+00   3.1498616612321957E+01  H   0.0000000000000000E+00   0.0000000000000000E+00   1.2739460801868965E-02  -1.5151586765644149E-02  -1.0111455769318409E-02
atom   4.2460291175569168E+01   1.4020573830812910E+00   2.9056901476131081E+01  H   0.0000000000000000E+00   0.0000000000000000E+00   2.4987955870890647E-02   1.0966451907889644E-02   2.9839277614436086E-02
atom   3.7655851455538446E+01   2.0036986929325991E+01   1.1805478226231914E+01  O   0.0000000000000000E+00   0.0000000000000000E+00  -1.2610404792060103E-03   2.0426356923547327E-03   1.5696938593158304E-02
atom   3.7135798823791880E+01   2.0300603724851591E+01   1.3601152689402458E+01  H   0.0000000000000000E+00   0.0000000000000000E+00   1.3049805905525967E-03   2.7692458328010621E-03  -1.1388824031126274E-02
atom   3.8412119853885002E+01   1.8347647355648103E+01   1.1900077916439882E+01  H   0.0000000000000000E+00   0.0000000000000000E+00  -1.8845809505713066E-03   1.2111241935692083E-04  -4.6358675207079387E-03
atom   2.6579788645971089E+01   1.8147600947229893E+01   2.0506646615664202E+01  O   0.0000000000000000E+00   0.0000000000000000E+00   1.8592493940442461E-03   1.6270072360036011E-02  -7.2236076453378820E-03
atom   2.8134277362812366E+01   1.7920247996192725E+01   1.9554602589959565E+01  H   0.0000000000000000E+00   0.0000000000000000E+00   1.0269483441383701E-03  -1.5006516505085361E-03  -7.7010232714082348E-04
atom   2.6448452679741489E+01   1.6690848865977035E+01   2.1588892771918761E+01  H   0.0000000000000000E+00   0.0000000000000000E+00  -1.5762673361522882E-03  -1.5195109387307289E-02   7.8856109410528046E-03
atom   3.6133299110341476E+01   1.7448024332867341E+01   2.7207993427799558E+01  O   0.0000000000000000E+00   0.0000000000000000E+00   8.7164585373981571E-03  -1.4532891537410803E-02  -1.2000206238699667E-02
atom   3.6420726455140368E+01   1.7683049572003675E+01   2.8968840238342601E+01  H   0.0000000000000000E+00   0.0000000000000000E+00   5.7755904844309031E-03   4.5619698715998894E-03   1.6850605064042047E-02
atom   3.4650431013933336E+01   1.8439544737486170E+01   2.6852157996993316E+01  H   0.0000000000000000E+00   0.0000000000000000E+00  -1.3025988035050222E-02   1.1274153115395676E-02  -5.9712074412936467E-03
atom   1.7526753250611435E+01   6.3876840447248746E+00   4.1424970042693786E+01  O   0.0000000000000000E+00   0.0000000000000000E+00   1.8907107301099686E-02  -4.1064967057727357E-03  -3.3687581540662896E-03
atom   1.8335480446404524E+01   8.0548949253876749E+00   4.1508873882990116E+01  H   0.0000000000000000E+00   0.0000000000000000E+00  -7.0216752566484540E-03  -5.6250114267945048E-04   6.3295976007849801E-03
atom   1.8867570633617021E+01   5.5281232159594662E+00   4.0402061287009154E+01  H   0.0000000000000000E+00   0.0000000000000000E+00  -1.9437445999878317E-02   6.3663851202650180E-03   6.1274849201824466E-03
atom   1.7123126645906687E+01   4.2976561427998462E+01   2.4385687448462761E+01  O   0.0000000000000000E+00   0.0000000000000000E+00   3.4467959980960437E-02  -1.6258038791019547E-02   1.8840582068468469E-02