 Entering Gaussian System, Link 0=/pbs/throng/ilm/sl6/allouche/Gaussian09D/g09/g09
 Initial command:
 /pbs/throng/ilm/sl6/allouche/Gaussian09D/g09/l1.exe "/scratch/6332040.1.long/Gau-169435.inp" -scrdir="/scratch/6332040.1.long/"
 Entering Link 1 = /pbs/throng/ilm/sl6/allouche/Gaussian09D/g09/l1.exe PID=    169436.
  
 Copyright (c) 1988,1990,1992,1993,1995,1998,2003,2009,2013,
            Gaussian, Inc.  All Rights Reserved.
  
 This is part of the Gaussian(R) 09 program.  It is based on
 the Gaussian(R) 03 system (copyright 2003, Gaussian, Inc.),
 the Gaussian(R) 98 system (copyright 1998, Gaussian, Inc.),
 the Gaussian(R) 94 system (copyright 1995, Gaussian, Inc.),
 the Gaussian 92(TM) system (copyright 1992, Gaussian, Inc.),
 the Gaussian 90(TM) system (copyright 1990, Gaussian, Inc.),
 the Gaussian 88(TM) system (copyright 1988, Gaussian, Inc.),
 the Gaussian 86(TM) system (copyright 1986, Carnegie Mellon
 University), and the Gaussian 82(TM) system (copyright 1983,
 Carnegie Mellon University). Gaussian is a federally registered
 trademark of Gaussian, Inc.
  
 This software contains proprietary and confidential information,
 including trade secrets, belonging to Gaussian, Inc.
  
 This software is provided under written license and may be
 used, copied, transmitted, or stored only in accord with that
 written license.
  
 The following legend is applicable only to US Government
 contracts under FAR:
  
                    RESTRICTED RIGHTS LEGEND
  
 Use, reproduction and disclosure by the US Government is
 subject to restrictions as set forth in subparagraphs (a)
 and (c) of the Commercial Computer Software - Restricted
 Rights clause in FAR 52.227-19.
  
 Gaussian, Inc.
 340 Quinnipiac St., Bldg. 40, Wallingford CT 06492
  
  
 ---------------------------------------------------------------
 Warning -- This program may not be used in any manner that
 competes with the business of Gaussian, Inc. or will provide
 assistance to any competitor of Gaussian, Inc.  The licensee
 of this program is prohibited from giving any competitor of
 Gaussian, Inc. access to this program.  By using this program,
 the user acknowledges that Gaussian, Inc. is engaged in the
 business of creating and licensing software in the field of
 computational chemistry and represents and warrants to the
 licensee that it is not a competitor of Gaussian, Inc. and that
 it will not use this program in any manner prohibited above.
 ---------------------------------------------------------------
  

 Cite this work as:
 Gaussian 09, Revision D.01,
 M. J. Frisch, G. W. Trucks, H. B. Schlegel, G. E. Scuseria, 
 M. A. Robb, J. R. Cheeseman, G. Scalmani, V. Barone, B. Mennucci, 
 G. A. Petersson, H. Nakatsuji, M. Caricato, X. Li, H. P. Hratchian, 
 A. F. Izmaylov, J. Bloino, G. Zheng, J. L. Sonnenberg, M. Hada, 
 M. Ehara, K. Toyota, R. Fukuda, J. Hasegawa, M. Ishida, T. Nakajima, 
 Y. Honda, O. Kitao, H. Nakai, T. Vreven, J. A. Montgomery, Jr., 
 J. E. Peralta, F. Ogliaro, M. Bearpark, J. J. Heyd, E. Brothers, 
 K. N. Kudin, V. N. Staroverov, T. Keith, R. Kobayashi, J. Normand, 
 K. Raghavachari, A. Rendell, J. C. Burant, S. S. Iyengar, J. Tomasi, 
 M. Cossi, N. Rega, J. M. Millam, M. Klene, J. E. Knox, J. B. Cross, 
 V. Bakken, C. Adamo, J. Jaramillo, R. Gomperts, R. E. Stratmann, 
 O. Yazyev, A. J. Austin, R. Cammi, C. Pomelli, J. W. Ochterski, 
 R. L. Martin, K. Morokuma, V. G. Zakrzewski, G. A. Voth, 
 P. Salvador, J. J. Dannenberg, S. Dapprich, A. D. Daniels, 
 O. Farkas, J. B. Foresman, J. V. Ortiz, J. Cioslowski, 
 and D. J. Fox, Gaussian, Inc., Wallingford CT, 2013.
 
 ******************************************
 Gaussian 09:  EM64L-G09RevD.01 24-Apr-2013
                16-May-2019 
 ******************************************
 -------------------------------------------------
 # B2PLYP/def2tzvpp nosym scf(tight) force Pop=NPA
 -------------------------------------------------
 1/10=7,30=1,38=1/1,3;
 2/12=2,15=1,17=6,18=5,40=1/2;
 3/5=44,7=202,11=9,16=1,25=1,30=1,71=1,74=-47/1,2,3;
 4//1;
 5/5=2,32=2,38=5/2;
 8/6=4,10=1/1;
 9/15=2,16=-3/6;
 10/5=1,31=1/2;
 6/7=2,8=2,9=2,10=2,18=1,40=-1/1,7;
 7/12=2,29=1,30=1/1,2,3,16;
 1/10=7,30=1/3;
 99//99;
 -----
 xPert
 -----
 Symbolic Z-matrix:
 Charge =  0 Multiplicity = 1
 H                     0.        0.75857  -0.4694 
 H                     0.       -0.75857  -0.4694 
 O                    -0.3       0.        0.11735 
 

 GradGradGradGradGradGradGradGradGradGradGradGradGradGradGradGradGradGrad
 Berny optimization.
 Initialization pass.
 Trust Radius=3.00D-01 FncErr=1.00D-07 GrdErr=1.00D-07
 Number of steps in this run=      2 maximum allowed number of steps=      2.
 GradGradGradGradGradGradGradGradGradGradGradGradGradGradGradGradGradGrad

                          Input orientation:                          
 ---------------------------------------------------------------------
 Center     Atomic      Atomic             Coordinates (Angstroms)
 Number     Number       Type             X           Y           Z
 ---------------------------------------------------------------------
      1          1           0        0.000000    0.758568   -0.469403
      2          1           0        0.000000   -0.758568   -0.469403
      3          8           0       -0.300000    0.000000    0.117351
 ---------------------------------------------------------------------
                    Distance matrix (angstroms):
                    1          2          3
     1  H    0.000000
     2  H    1.517136   0.000000
     3  O    1.004841   1.004841   0.000000
 Symmetry turned off by external request.
 Stoichiometry    H2O
 Framework group  C2V[C2(O),SGV(H2)]
 Deg. of freedom     2
 Full point group                 C2V     NOp   4
 Rotational constants (GHZ):    650.0958220    435.7255441    260.8747301
 Standard basis: def2TZVPP (5D, 7F)
    59 basis functions,    85 primitive gaussians,    66 cartesian basis functions
     5 alpha electrons        5 beta electrons
       nuclear repulsion energy         8.7748440001 Hartrees.
 NAtoms=    3 NActive=    3 NUniq=    3 SFac= 1.00D+00 NAtFMM=   60 NAOKFM=F Big=F
 Integral buffers will be    131072 words long.
 Regular integral format.
 Two-electron integral symmetry is turned off.
 One-electron integrals computed using PRISM.
   1 Symmetry operations used in ECPInt.
 ECPInt:  NShTT=     276 NPrTT=     694 LenC2=     277 LenP2D=     679.
 LDataN:  DoStor=T MaxTD1= 6 Len=  172
 NBasis=    59 RedAO= T EigKep=  2.76D-03  NBF=    59
 NBsUse=    59 1.00D-06 EigRej= -1.00D+00 NBFU=    59
 ExpMin= 1.03D-01 ExpMax= 2.70D+04 ExpMxC= 9.22D+02 IAcc=1 IRadAn=         1 AccDes= 0.00D+00
 Harris functional with IExCor=  419 and IRadAn=       1 diagonalized for initial guess.
 HarFok:  IExCor=  419 AccDes= 0.00D+00 IRadAn=         1 IDoV= 1 UseB2=F ITyADJ=14
 ICtDFT=  3500011 ScaDFX=  1.000000  1.000000  1.000000  1.000000
 FoFCou: FMM=F IPFlag=           0 FMFlag=      100000 FMFlg1=           0
         NFxFlg=           0 DoJE=T BraDBF=F KetDBF=T FulRan=T
         wScrn=  0.000000 ICntrl=     500 IOpCl=  0 I1Cent=   200000004 NGrid=           0
         NMat0=    1 NMatS0=      1 NMatT0=    0 NMatD0=    1 NMtDS0=    0 NMtDT0=    0
 Symmetry not used in FoFCou.
 Keep R1 ints in memory in canonical form, NReq=3557621.
 Requested convergence on RMS density matrix=1.00D-08 within 128 cycles.
 Requested convergence on MAX density matrix=1.00D-06.
 Requested convergence on             energy=1.00D-06.
 No special actions if energy rises.
 Integral accuracy reduced to 1.0D-05 until final iterations.
 Initial convergence to 1.0D-05 achieved.  Increase integral accuracy.
 SCF Done:  E(RB2PLYP) =  -76.3238677140     A.U. after   10 cycles
            NFock= 10  Conv=0.52D-08     -V/T= 2.0044
 DoSCS=T DFT=T ScalE2(SS,OS)=  0.270000  0.270000
 ExpMin= 1.03D-01 ExpMax= 2.70D+04 ExpMxC= 9.22D+02 IAcc=3 IRadAn=         5 AccDes= 0.00D+00
 HarFok:  IExCor=  205 AccDes= 0.00D+00 IRadAn=         5 IDoV=-2 UseB2=F ITyADJ=14
 ICtDFT= 12500011 ScaDFX=  1.000000  1.000000  1.000000  1.000000
 Range of M.O.s used for correlation:     2    59
 NBasis=    59 NAE=     5 NBE=     5 NFC=     1 NFV=     0
 NROrb=     58 NOA=     4 NOB=     4 NVA=    54 NVB=    54
 DoSCS=T DFT=T ScalE2(SS,OS)=  0.270000  0.270000
 Fully direct method using O(ONN) memory.
 JobTyp=1 Pass  1:  I=   2 to   5 NPSUse=  1 ParTrn=F ParDer=F DoDerP=T.
 Spin components of T(2) and E(2):
     alpha-alpha T2 =       0.1238949356D-01 E2=     -0.1043030747D-01
     alpha-beta  T2 =       0.7270658125D-01 E2=     -0.6448795484D-01
     beta-beta   T2 =       0.1238949356D-01 E2=     -0.1043030747D-01
 E2(B2PLYP) =    -0.8534856979D-01 E(B2PLYP) =    -0.76409216283799D+02
          IDoAtm=111
          Differentiating once with respect to electric field.
                with respect to dipole field.
          Differentiating once with respect to nuclear coordinates.
 Keep R1 ints in memory in canonical form, NReq=3533351.
          There are     1 degrees of freedom in the 1st order CPHF.  IDoFFX=0 NUNeed=     1.
 LinEq1:  Iter=  0 NonCon=     1 RMS=2.09D-03 Max=1.72D-02 NDo=     1
 AX will form     1 AO Fock derivatives at one time.
 LinEq1:  Iter=  1 NonCon=     1 RMS=2.50D-04 Max=2.05D-03 NDo=     1
 LinEq1:  Iter=  2 NonCon=     1 RMS=7.06D-05 Max=6.20D-04 NDo=     1
 LinEq1:  Iter=  3 NonCon=     1 RMS=3.33D-05 Max=1.80D-04 NDo=     1
 LinEq1:  Iter=  4 NonCon=     1 RMS=8.33D-06 Max=5.47D-05 NDo=     1
 LinEq1:  Iter=  5 NonCon=     1 RMS=6.60D-07 Max=5.77D-06 NDo=     1
 LinEq1:  Iter=  6 NonCon=     1 RMS=8.46D-08 Max=6.74D-07 NDo=     1
 LinEq1:  Iter=  7 NonCon=     1 RMS=6.36D-09 Max=5.46D-08 NDo=     1
 LinEq1:  Iter=  8 NonCon=     1 RMS=2.99D-10 Max=2.22D-09 NDo=     1
 LinEq1:  Iter=  9 NonCon=     0 RMS=1.99D-11 Max=1.19D-10 NDo=     1
 Linear equations converged to 1.000D-10 1.000D-09 after     9 iterations.
 End of Minotr F.D. properties file   721 does not exist.
 End of Minotr F.D. properties file   722 does not exist.
 End of Minotr F.D. properties file   788 does not exist.

 **********************************************************************

            Population analysis using the SCF density.

 **********************************************************************

 Alpha  occ. eigenvalues --  -19.73551  -1.13713  -0.57740  -0.47739  -0.39440
 Alpha virt. eigenvalues --    0.05272   0.12876   0.40102   0.46774   0.47556
 Alpha virt. eigenvalues --    0.49508   0.59976   0.63008   0.67628   0.75437
 Alpha virt. eigenvalues --    0.80948   1.07071   1.23841   1.27066   1.86517
 Alpha virt. eigenvalues --    1.87055   1.87404   1.96550   1.98948   2.19311
 Alpha virt. eigenvalues --    2.52026   2.69228   2.85280   3.12662   3.22834
 Alpha virt. eigenvalues --    3.32110   3.35660   3.41634   3.45115   3.65291
 Alpha virt. eigenvalues --    3.70845   3.74693   3.76334   4.03960   4.10727
 Alpha virt. eigenvalues --    4.14422   4.24549   4.67452   4.67467   4.86969
 Alpha virt. eigenvalues --    5.06777   5.71101   6.28580   6.42454   6.45601
 Alpha virt. eigenvalues --    6.51869   6.73101   6.82709   6.88533   6.96187
 Alpha virt. eigenvalues --    7.48427   7.51173   7.61492  44.00400
          Condensed to atoms (all electrons):
               1          2          3
     1  H    0.487060  -0.023628   0.312532
     2  H   -0.023628   0.487060   0.312532
     3  O    0.312532   0.312532   7.823009
 Mulliken charges:
               1
     1  H    0.224036
     2  H    0.224036
     3  O   -0.448073
 Sum of Mulliken charges =   0.00000
 Mulliken charges with hydrogens summed into heavy atoms:
               1
     3  O    0.000000
 Electronic spatial extent (au):  <R**2>=             22.4768
 Charge=              0.0000 electrons
 Dipole moment (field-independent basis, Debye):
    X=              0.9659    Y=              0.0000    Z=             -1.8890  Tot=              2.1216
 Quadrupole moment (field-independent basis, Debye-Ang):
   XX=             -7.7138   YY=             -4.5148   ZZ=             -6.3715
   XY=              0.0000   XZ=             -0.1549   YZ=              0.0000
 Traceless Quadrupole moment (field-independent basis, Debye-Ang):
   XX=             -1.5138   YY=              1.6852   ZZ=             -0.1715
   XY=              0.0000   XZ=             -0.1549   YZ=              0.0000
 Octapole moment (field-independent basis, Debye-Ang**2):
  XXX=              5.8137  YYY=              0.0000  ZZZ=             -1.0557  XYY=              1.7310
  XXY=              0.0000  XXZ=             -0.1472  XZZ=              1.8112  YZZ=              0.0000
  YYZ=             -1.2663  XYZ=              0.0000
 Hexadecapole moment (field-independent basis, Debye-Ang**3):
 XXXX=             -9.6014 YYYY=             -6.6766 ZZZZ=             -7.2812 XXXY=              0.0000
 XXXZ=              0.4424 YYYX=              0.0000 YYYZ=              0.0000 ZZZX=              0.4187
 ZZZY=              0.0000 XXYY=             -2.9139 XXZZ=             -2.7953 YYZZ=             -1.9908
 XXYZ=              0.0000 YYXZ=              0.0601 ZZXY=              0.0000
 N-N= 8.774844000096D+00 E-N=-1.983433084506D+02  KE= 7.599131321424D+01
 ******************************Gaussian NBO Version 3.1******************************
             N A T U R A L   A T O M I C   O R B I T A L   A N D
          N A T U R A L   B O N D   O R B I T A L   A N A L Y S I S
 ******************************Gaussian NBO Version 3.1******************************
       /RESON  / : Allow strongly delocalized NBO set

 Analyzing the SCF density

 Job title: xPert                                                           

 Storage needed:     10799 in NPA ( 536870849 available)


 NATURAL POPULATIONS:  Natural atomic orbital occupancies 
                                                          
   NAO  Atom  No  lang   Type(AO)    Occupancy      Energy
 ----------------------------------------------------------
     1    H    1  S      Val( 1S)     0.53851       0.11574
     2    H    1  S      Ryd( 2S)     0.00159       0.77038
     3    H    1  S      Ryd( 3S)     0.00007       1.82319
     4    H    1  px     Ryd( 2p)     0.00197       1.63088
     5    H    1  px     Ryd( 3p)     0.00013       3.55603
     6    H    1  py     Ryd( 2p)     0.00044       2.25220
     7    H    1  py     Ryd( 3p)     0.00047       3.83082
     8    H    1  pz     Ryd( 2p)     0.00151       1.92257
     9    H    1  pz     Ryd( 3p)     0.00048       3.67989
    10    H    1  dxy    Ryd( 3d)     0.00003       3.84580
    11    H    1  dxz    Ryd( 3d)     0.00002       3.69998
    12    H    1  dyz    Ryd( 3d)     0.00003       4.04676
    13    H    1  dx2y2  Ryd( 3d)     0.00009       3.92574
    14    H    1  dz2    Ryd( 3d)     0.00001       3.85724

    15    H    2  S      Val( 1S)     0.53851       0.11574
    16    H    2  S      Ryd( 2S)     0.00159       0.77038
    17    H    2  S      Ryd( 3S)     0.00007       1.82319
    18    H    2  px     Ryd( 2p)     0.00197       1.63088
    19    H    2  px     Ryd( 3p)     0.00013       3.55603
    20    H    2  py     Ryd( 2p)     0.00044       2.25220
    21    H    2  py     Ryd( 3p)     0.00047       3.83082
    22    H    2  pz     Ryd( 2p)     0.00151       1.92257
    23    H    2  pz     Ryd( 3p)     0.00048       3.67989
    24    H    2  dxy    Ryd( 3d)     0.00003       3.84580
    25    H    2  dxz    Ryd( 3d)     0.00002       3.69998
    26    H    2  dyz    Ryd( 3d)     0.00003       4.04676
    27    H    2  dx2y2  Ryd( 3d)     0.00009       3.92574
    28    H    2  dz2    Ryd( 3d)     0.00001       3.85724

    29    O    3  S      Cor( 1S)     1.99989     -19.52923
    30    O    3  S      Val( 2S)     1.78240      -1.07969
    31    O    3  S      Ryd( 3S)     0.00063       2.01994
    32    O    3  S      Ryd( 5S)     0.00000      31.41255
    33    O    3  S      Ryd( 4S)     0.00000      14.56427
    34    O    3  px     Val( 2p)     1.92412      -0.37895
    35    O    3  px     Ryd( 3p)     0.00077       0.59093
    36    O    3  px     Ryd( 4p)     0.00004       2.79461
    37    O    3  py     Val( 2p)     1.45861      -0.30430
    38    O    3  py     Ryd( 3p)     0.00201       0.64287
    39    O    3  py     Ryd( 4p)     0.00001       3.27365
    40    O    3  pz     Val( 2p)     1.73196      -0.35138
    41    O    3  pz     Ryd( 3p)     0.00033       0.61739
    42    O    3  pz     Ryd( 4p)     0.00016       3.01568
    43    O    3  dxy    Ryd( 3d)     0.00043       2.43084
    44    O    3  dxy    Ryd( 4d)     0.00003       6.61419
    45    O    3  dxz    Ryd( 3d)     0.00266       2.27688
    46    O    3  dxz    Ryd( 4d)     0.00002       6.59260
    47    O    3  dyz    Ryd( 3d)     0.00166       3.05288
    48    O    3  dyz    Ryd( 4d)     0.00012       6.92972
    49    O    3  dx2y2  Ryd( 3d)     0.00085       2.47344
    50    O    3  dx2y2  Ryd( 4d)     0.00002       6.62139
    51    O    3  dz2    Ryd( 3d)     0.00226       2.33312
    52    O    3  dz2    Ryd( 4d)     0.00003       6.56533
    53    O    3  f(0)   Ryd( 4f)     0.00003       5.81069
    54    O    3  f(C1)  Ryd( 4f)     0.00004       5.64340
    55    O    3  f(S1)  Ryd( 4f)     0.00001       6.16450
    56    O    3  f(C2)  Ryd( 4f)     0.00010       6.10053
    57    O    3  f(S2)  Ryd( 4f)     0.00000       6.09490
    58    O    3  f(C3)  Ryd( 4f)     0.00009       5.84750
    59    O    3  f(S3)  Ryd( 4f)     0.00003       5.82858

 WARNING:  Population inversion found on atom  H    1
           Population inversion found on atom  H    2
           Population inversion found on atom  O    3


 Summary of Natural Population Analysis:                  
                                                          
                                       Natural Population 
                Natural  -----------------------------------------------
    Atom  No    Charge         Core      Valence    Rydberg      Total
 -----------------------------------------------------------------------
      H    1    0.45465      0.00000     0.53851    0.00684     0.54535
      H    2    0.45465      0.00000     0.53851    0.00684     0.54535
      O    3   -0.90931      1.99989     6.89709    0.01233     8.90931
 =======================================================================
   * Total *    0.00000      1.99989     7.97410    0.02601    10.00000

                                 Natural Population      
 --------------------------------------------------------
   Core                       1.99989 ( 99.9943% of   2)
   Valence                    7.97410 ( 99.6763% of   8)
   Natural Minimal Basis      9.97399 ( 99.7399% of  10)
   Natural Rydberg Basis      0.02601 (  0.2601% of  10)
 --------------------------------------------------------

    Atom  No          Natural Electron Configuration
 ----------------------------------------------------------------------------
      H    1            1S( 0.54)
      H    2            1S( 0.54)
      O    3      [core]2S( 1.78)2p( 5.11)3d( 0.01)


 NBO analysis skipped by request.
   1 Symmetry operations used in ECPInt.
 ECPInt:  NShTT=     276 NPrTT=     694 LenC2=     277 LenP2D=     679.
 LDataN:  DoStor=T MaxTD1= 7 Len=  274
 Calling FoFJK, ICntrl=  10002127 FMM=F ISym2X=0 I1Cent= 0 IOpClX= 0 NMat=1 NMatS=1 NMatT=0.
 -------------------------------------------------------------------
 Center     Atomic                   Forces (Hartrees/Bohr)
 Number     Number              X              Y              Z
 -------------------------------------------------------------------
      1        1          -0.013246305   -0.022749577    0.025905531
      2        1          -0.013246305    0.022749577    0.025905531
      3        8           0.026492611    0.000000000   -0.051811062
 -------------------------------------------------------------------
 Cartesian Forces:  Max     0.051811062 RMS     0.026064990

 GradGradGradGradGradGradGradGradGradGradGradGradGradGradGradGradGradGrad
 Berny optimization.
 Search for a local minimum.
 Step number   1 out of a maximum of    2
 All quantities printed in internal units (Hartrees-Bohrs-Radians)
 Second derivative matrix not updated -- first step.
 The second derivative matrix:
                          X1        Y1        Z1        X2        Y2
           X1           0.04700
           Y1           0.09558   0.28607
           Z1          -0.09192  -0.18695   0.17978
           X2           0.00524  -0.01000  -0.01025   0.04700
           Y2           0.01000  -0.01909  -0.01956  -0.09558   0.28607
           Z2          -0.01025   0.01956   0.02005  -0.09192   0.18695
           X3          -0.05224  -0.08558   0.10217  -0.05224   0.08558
           Y3          -0.10559  -0.26698   0.20651   0.10559  -0.26698
           Z3           0.10217   0.16739  -0.19983   0.10217  -0.16739
                          Z2        X3        Y3        Z3
           Z2           0.17978
           X3           0.10217   0.10448
           Y3          -0.20651   0.00000   0.53396
           Z3          -0.19983  -0.20434   0.00000   0.39966
 ITU=  0
     Eigenvalues ---    0.12648   0.76633   0.80712
 Angle between quadratic step and forces=  33.24 degrees.
 Linear search not attempted -- first point.
 TrRot=  0.012720  0.000000 -0.024879  0.000000  0.000000  0.000000
 Variable       Old X    -DE/DX   Delta X   Delta X   Delta X     New X
                                 (Linear)    (Quad)   (Total)
    X1        0.00000  -0.01325   0.00000  -0.02952  -0.01680  -0.01680
    Y1        1.43349  -0.02275   0.00000  -0.00636  -0.00636   1.42712
    Z1       -0.88704   0.02591   0.00000   0.05773   0.03285  -0.85419
    X2        0.00000  -0.01325   0.00000  -0.02952  -0.01680  -0.01680
    Y2       -1.43349   0.02275   0.00000   0.00636   0.00636  -1.42712
    Z2       -0.88704   0.02591   0.00000   0.05773   0.03285  -0.85419
    X3       -0.56692   0.02649   0.00000   0.02087   0.03359  -0.53333
    Y3        0.00000   0.00000   0.00000   0.00000   0.00000   0.00000
    Z3        0.22176  -0.05181   0.00000  -0.04082  -0.06570   0.15606
         Item               Value     Threshold  Converged?
 Maximum Force            0.051811     0.000450     NO 
 RMS     Force            0.026065     0.000300     NO 
 Maximum Displacement     0.065699     0.001800     NO 
 RMS     Displacement     0.030273     0.001200     NO 
 Predicted change in Energy=-3.365121D-03
 GradGradGradGradGradGradGradGradGradGradGradGradGradGradGradGradGradGrad

 1\1\GINC-CCWSGE0005\Force\RB2PLYP-FC\def2TZVPP\H2O1\ALLOUCHE\16-May-20
 19\0\\# B2PLYP/def2tzvpp nosym scf(tight) force Pop=NPA\\xPert\\0,1\H,
 0.,0.758568,-0.469403\H,0.,-0.758568,-0.469403\O,-0.3,0.,0.117351\\Ver
 sion=EM64L-G09RevD.01\HF=-76.3238677\MP2=-76.4092163\RMSD=5.170e-09\RM
 SF=2.606e-02\Dipole=0.3691413,0.,-0.7219765\PG=C02V [C2(O1),SGV(H2)]\\
 @


 A SLIP OF THE FOOT YOU MAY SOON RECOVER, BUT A SLIP OF THE TONGUE
 YOU MAY NEVER GET OVER. -- BEN FRANKLIN
 Job cpu time:       0 days  0 hours  0 minutes 17.9 seconds.
 File lengths (MBytes):  RWF=      5 Int=      0 D2E=      0 Chk=      1 Scr=      1
 Normal termination of Gaussian 09 at Thu May 16 09:05:19 2019.
