 Entering Gaussian System, Link 0=/pbs/throng/ilm/sl6/allouche/Gaussian09D/g09/g09
 Initial command:
 /pbs/throng/ilm/sl6/allouche/Gaussian09D/g09/l1.exe "/scratch/6332041.1.long/Gau-108447.inp" -scrdir="/scratch/6332041.1.long/"
 Entering Link 1 = /pbs/throng/ilm/sl6/allouche/Gaussian09D/g09/l1.exe PID=    108451.
  
 Copyright (c) 1988,1990,1992,1993,1995,1998,2003,2009,2013,
            Gaussian, Inc.  All Rights Reserved.
  
 This is part of the Gaussian(R) 09 program.  It is based on
 the Gaussian(R) 03 system (copyright 2003, Gaussian, Inc.),
 the Gaussian(R) 98 system (copyright 1998, Gaussian, Inc.),
 the Gaussian(R) 94 system (copyright 1995, Gaussian, Inc.),
 the Gaussian 92(TM) system (copyright 1992, Gaussian, Inc.),
 the Gaussian 90(TM) system (copyright 1990, Gaussian, Inc.),
 the Gaussian 88(TM) system (copyright 1988, Gaussian, Inc.),
 the Gaussian 86(TM) system (copyright 1986, Carnegie Mellon
 University), and the Gaussian 82(TM) system (copyright 1983,
 Carnegie Mellon University). Gaussian is a federally registered
 trademark of Gaussian, Inc.
  
 This software contains proprietary and confidential information,
 including trade secrets, belonging to Gaussian, Inc.
  
 This software is provided under written license and may be
 used, copied, transmitted, or stored only in accord with that
 written license.
  
 The following legend is applicable only to US Government
 contracts under FAR:
  
                    RESTRICTED RIGHTS LEGEND
  
 Use, reproduction and disclosure by the US Government is
 subject to restrictions as set forth in subparagraphs (a)
 and (c) of the Commercial Computer Software - Restricted
 Rights clause in FAR 52.227-19.
  
 Gaussian, Inc.
 340 Quinnipiac St., Bldg. 40, Wallingford CT 06492
  
  
 ---------------------------------------------------------------
 Warning -- This program may not be used in any manner that
 competes with the business of Gaussian, Inc. or will provide
 assistance to any competitor of Gaussian, Inc.  The licensee
 of this program is prohibited from giving any competitor of
 Gaussian, Inc. access to this program.  By using this program,
 the user acknowledges that Gaussian, Inc. is engaged in the
 business of creating and licensing software in the field of
 computational chemistry and represents and warrants to the
 licensee that it is not a competitor of Gaussian, Inc. and that
 it will not use this program in any manner prohibited above.
 ---------------------------------------------------------------
  

 Cite this work as:
 Gaussian 09, Revision D.01,
 M. J. Frisch, G. W. Trucks, H. B. Schlegel, G. E. Scuseria, 
 M. A. Robb, J. R. Cheeseman, G. Scalmani, V. Barone, B. Mennucci, 
 G. A. Petersson, H. Nakatsuji, M. Caricato, X. Li, H. P. Hratchian, 
 A. F. Izmaylov, J. Bloino, G. Zheng, J. L. Sonnenberg, M. Hada, 
 M. Ehara, K. Toyota, R. Fukuda, J. Hasegawa, M. Ishida, T. Nakajima, 
 Y. Honda, O. Kitao, H. Nakai, T. Vreven, J. A. Montgomery, Jr., 
 J. E. Peralta, F. Ogliaro, M. Bearpark, J. J. Heyd, E. Brothers, 
 K. N. Kudin, V. N. Staroverov, T. Keith, R. Kobayashi, J. Normand, 
 K. Raghavachari, A. Rendell, J. C. Burant, S. S. Iyengar, J. Tomasi, 
 M. Cossi, N. Rega, J. M. Millam, M. Klene, J. E. Knox, J. B. Cross, 
 V. Bakken, C. Adamo, J. Jaramillo, R. Gomperts, R. E. Stratmann, 
 O. Yazyev, A. J. Austin, R. Cammi, C. Pomelli, J. W. Ochterski, 
 R. L. Martin, K. Morokuma, V. G. Zakrzewski, G. A. Voth, 
 P. Salvador, J. J. Dannenberg, S. Dapprich, A. D. Daniels, 
 O. Farkas, J. B. Foresman, J. V. Ortiz, J. Cioslowski, 
 and D. J. Fox, Gaussian, Inc., Wallingford CT, 2013.
 
 ******************************************
 Gaussian 09:  EM64L-G09RevD.01 24-Apr-2013
                16-May-2019 
 ******************************************
 -------------------------------------------------
 # B2PLYP/def2tzvpp nosym scf(tight) force Pop=NPA
 -------------------------------------------------
 1/10=7,30=1,38=1/1,3;
 2/12=2,15=1,17=6,18=5,40=1/2;
 3/5=44,7=202,11=9,16=1,25=1,30=1,71=1,74=-47/1,2,3;
 4//1;
 5/5=2,32=2,38=5/2;
 8/6=4,10=1/1;
 9/15=2,16=-3/6;
 10/5=1,31=1/2;
 6/7=2,8=2,9=2,10=2,18=1,40=-1/1,7;
 7/12=2,29=1,30=1/1,2,3,16;
 1/10=7,30=1/3;
 99//99;
 -----
 xPert
 -----
 Symbolic Z-matrix:
 Charge =  0 Multiplicity = 1
 H                     0.        0.45857  -0.4694 
 H                     0.       -0.75857  -0.4694 
 O                     0.        0.        0.11735 
 

 GradGradGradGradGradGradGradGradGradGradGradGradGradGradGradGradGradGrad
 Berny optimization.
 Initialization pass.
 Trust Radius=3.00D-01 FncErr=1.00D-07 GrdErr=1.00D-07
 Number of steps in this run=      2 maximum allowed number of steps=      2.
 GradGradGradGradGradGradGradGradGradGradGradGradGradGradGradGradGradGrad

                          Input orientation:                          
 ---------------------------------------------------------------------
 Center     Atomic      Atomic             Coordinates (Angstroms)
 Number     Number       Type             X           Y           Z
 ---------------------------------------------------------------------
      1          1           0        0.000000    0.458568   -0.469403
      2          1           0        0.000000   -0.758568   -0.469403
      3          8           0        0.000000    0.000000    0.117351
 ---------------------------------------------------------------------
                    Distance matrix (angstroms):
                    1          2          3
     1  H    0.000000
     2  H    1.217136   0.000000
     3  O    0.744691   0.959013   0.000000
 Symmetry turned off by external request.
 Stoichiometry    H2O
 Framework group  CS[SG(H2O)]
 Deg. of freedom     3
 Full point group                 CS      NOp   2
 Rotational constants (GHZ):    967.4186600    573.8583632    360.1956562
 Standard basis: def2TZVPP (5D, 7F)
    59 basis functions,    85 primitive gaussians,    66 cartesian basis functions
     5 alpha electrons        5 beta electrons
       nuclear repulsion energy        10.5339184194 Hartrees.
 NAtoms=    3 NActive=    3 NUniq=    3 SFac= 1.00D+00 NAtFMM=   60 NAOKFM=F Big=F
 Integral buffers will be    131072 words long.
 Regular integral format.
 Two-electron integral symmetry is turned off.
 One-electron integrals computed using PRISM.
   1 Symmetry operations used in ECPInt.
 ECPInt:  NShTT=     276 NPrTT=     694 LenC2=     277 LenP2D=     683.
 LDataN:  DoStor=T MaxTD1= 6 Len=  172
 NBasis=    59 RedAO= T EigKep=  1.31D-03  NBF=    59
 NBsUse=    59 1.00D-06 EigRej= -1.00D+00 NBFU=    59
 ExpMin= 1.03D-01 ExpMax= 2.70D+04 ExpMxC= 9.22D+02 IAcc=1 IRadAn=         1 AccDes= 0.00D+00
 Harris functional with IExCor=  419 and IRadAn=       1 diagonalized for initial guess.
 HarFok:  IExCor=  419 AccDes= 0.00D+00 IRadAn=         1 IDoV= 1 UseB2=F ITyADJ=14
 ICtDFT=  3500011 ScaDFX=  1.000000  1.000000  1.000000  1.000000
 FoFCou: FMM=F IPFlag=           0 FMFlag=      100000 FMFlg1=           0
         NFxFlg=           0 DoJE=T BraDBF=F KetDBF=T FulRan=T
         wScrn=  0.000000 ICntrl=     500 IOpCl=  0 I1Cent=   200000004 NGrid=           0
         NMat0=    1 NMatS0=      1 NMatT0=    0 NMatD0=    1 NMtDS0=    0 NMtDT0=    0
 Symmetry not used in FoFCou.
 Keep R1 ints in memory in canonical form, NReq=3557691.
 Requested convergence on RMS density matrix=1.00D-08 within 128 cycles.
 Requested convergence on MAX density matrix=1.00D-06.
 Requested convergence on             energy=1.00D-06.
 No special actions if energy rises.
 Integral accuracy reduced to 1.0D-05 until final iterations.
 Initial convergence to 1.0D-05 achieved.  Increase integral accuracy.
 SCF Done:  E(RB2PLYP) =  -76.2467526257     A.U. after   10 cycles
            NFock= 10  Conv=0.39D-08     -V/T= 1.9932
 DoSCS=T DFT=T ScalE2(SS,OS)=  0.270000  0.270000
 ExpMin= 1.03D-01 ExpMax= 2.70D+04 ExpMxC= 9.22D+02 IAcc=3 IRadAn=         5 AccDes= 0.00D+00
 HarFok:  IExCor=  205 AccDes= 0.00D+00 IRadAn=         5 IDoV=-2 UseB2=F ITyADJ=14
 ICtDFT= 12500011 ScaDFX=  1.000000  1.000000  1.000000  1.000000
 Range of M.O.s used for correlation:     2    59
 NBasis=    59 NAE=     5 NBE=     5 NFC=     1 NFV=     0
 NROrb=     58 NOA=     4 NOB=     4 NVA=    54 NVB=    54

 **** Warning!!: The largest alpha MO coefficient is  0.10441342D+02

 DoSCS=T DFT=T ScalE2(SS,OS)=  0.270000  0.270000
 Fully direct method using O(ONN) memory.
 JobTyp=1 Pass  1:  I=   2 to   5 NPSUse=  1 ParTrn=F ParDer=F DoDerP=T.
 Spin components of T(2) and E(2):
     alpha-alpha T2 =       0.1038172208D-01 E2=     -0.9914316568D-02
     alpha-beta  T2 =       0.5976265946D-01 E2=     -0.6100017022D-01
     beta-beta   T2 =       0.1038172208D-01 E2=     -0.9914316568D-02
 E2(B2PLYP) =    -0.8082880335D-01 E(B2PLYP) =    -0.76327581429013D+02
          IDoAtm=111
          Differentiating once with respect to electric field.
                with respect to dipole field.
          Differentiating once with respect to nuclear coordinates.
 Keep R1 ints in memory in canonical form, NReq=3533408.
          There are     1 degrees of freedom in the 1st order CPHF.  IDoFFX=0 NUNeed=     1.
 LinEq1:  Iter=  0 NonCon=     1 RMS=1.69D-03 Max=1.26D-02 NDo=     1
 AX will form     1 AO Fock derivatives at one time.
 LinEq1:  Iter=  1 NonCon=     1 RMS=1.87D-04 Max=1.20D-03 NDo=     1
 LinEq1:  Iter=  2 NonCon=     1 RMS=3.98D-05 Max=2.11D-04 NDo=     1
 LinEq1:  Iter=  3 NonCon=     1 RMS=1.67D-05 Max=1.00D-04 NDo=     1
 LinEq1:  Iter=  4 NonCon=     1 RMS=5.09D-06 Max=3.00D-05 NDo=     1
 LinEq1:  Iter=  5 NonCon=     1 RMS=3.33D-07 Max=1.73D-06 NDo=     1
 LinEq1:  Iter=  6 NonCon=     1 RMS=5.76D-08 Max=3.30D-07 NDo=     1
 LinEq1:  Iter=  7 NonCon=     1 RMS=9.11D-09 Max=6.65D-08 NDo=     1
 LinEq1:  Iter=  8 NonCon=     1 RMS=8.15D-10 Max=5.45D-09 NDo=     1
 LinEq1:  Iter=  9 NonCon=     0 RMS=7.70D-11 Max=7.41D-10 NDo=     1
 Linear equations converged to 1.000D-10 1.000D-09 after     9 iterations.
 End of Minotr F.D. properties file   721 does not exist.
 End of Minotr F.D. properties file   722 does not exist.
 End of Minotr F.D. properties file   788 does not exist.

 **********************************************************************

            Population analysis using the SCF density.

 **********************************************************************

 Alpha  occ. eigenvalues --  -19.70980  -1.23888  -0.62756  -0.51168  -0.41032
 Alpha virt. eigenvalues --    0.06312   0.15152   0.41747   0.45453   0.48540
 Alpha virt. eigenvalues --    0.57165   0.65113   0.67889   0.69271   0.77931
 Alpha virt. eigenvalues --    0.82786   1.16551   1.26972   1.45556   1.70526
 Alpha virt. eigenvalues --    1.87965   1.91138   1.95910   1.97773   2.27082
 Alpha virt. eigenvalues --    2.57722   2.66197   2.87375   3.04304   3.17779
 Alpha virt. eigenvalues --    3.39303   3.53697   3.64007   3.70759   3.75820
 Alpha virt. eigenvalues --    3.84732   3.93003   3.93896   4.16502   4.34374
 Alpha virt. eigenvalues --    4.49408   4.54203   4.79172   5.02689   5.40187
 Alpha virt. eigenvalues --    5.79964   6.01237   6.37181   6.48937   6.60964
 Alpha virt. eigenvalues --    6.82580   6.83920   7.14131   7.31431   7.72950
 Alpha virt. eigenvalues --    7.94395   8.10051   8.84800  44.56133
          Condensed to atoms (all electrons):
               1          2          3
     1  H    0.594694  -0.034970   0.419565
     2  H   -0.034970   0.506526   0.338924
     3  O    0.419565   0.338924   7.451742
 Mulliken charges:
               1
     1  H    0.020711
     2  H    0.189520
     3  O   -0.210231
 Sum of Mulliken charges =   0.00000
 Mulliken charges with hydrogens summed into heavy atoms:
               1
     3  O    0.000000
 Electronic spatial extent (au):  <R**2>=             18.1095
 Charge=              0.0000 electrons
 Dipole moment (field-independent basis, Debye):
    X=              0.0000    Y=             -0.3737    Z=             -2.0823  Tot=              2.1156
 Quadrupole moment (field-independent basis, Debye-Ang):
   XX=             -7.1954   YY=             -4.9060   ZZ=             -5.8368
   XY=              0.0000   XZ=              0.0000   YZ=              0.2111
 Traceless Quadrupole moment (field-independent basis, Debye-Ang):
   XX=             -1.2160   YY=              1.0734   ZZ=              0.1426
   XY=              0.0000   XZ=              0.0000   YZ=              0.2111
 Octapole moment (field-independent basis, Debye-Ang**2):
  XXX=              0.0000  YYY=              0.0484  ZZZ=             -1.4789  XYY=              0.0000
  XXY=              0.2481  XXZ=             -0.3916  XZZ=              0.0000  YZZ=              0.0942
  YYZ=             -1.0439  XYZ=              0.0000
 Hexadecapole moment (field-independent basis, Debye-Ang**3):
 XXXX=             -5.8409 YYYY=             -5.6460 ZZZZ=             -6.2231 XXXY=              0.0000
 XXXZ=              0.0000 YYYX=              0.0000 YYYZ=              0.0535 ZZZX=              0.0000
 ZZZY=             -0.2770 XXYY=             -2.0891 XXZZ=             -2.0703 YYZZ=             -1.7171
 XXYZ=             -0.1150 YYXZ=              0.0000 ZZXY=              0.0000
 N-N= 1.053391841941D+01 E-N=-2.020737936150D+02  KE= 7.676795843872D+01
 ******************************Gaussian NBO Version 3.1******************************
             N A T U R A L   A T O M I C   O R B I T A L   A N D
          N A T U R A L   B O N D   O R B I T A L   A N A L Y S I S
 ******************************Gaussian NBO Version 3.1******************************
       /RESON  / : Allow strongly delocalized NBO set

 Analyzing the SCF density

 Job title: xPert                                                           

 Storage needed:     10799 in NPA ( 536870849 available)


 NATURAL POPULATIONS:  Natural atomic orbital occupancies 
                                                          
   NAO  Atom  No  lang   Type(AO)    Occupancy      Energy
 ----------------------------------------------------------
     1    H    1  S      Val( 1S)     0.59751       0.52706
     2    H    1  S      Ryd( 3S)     0.00081       1.57251
     3    H    1  S      Ryd( 2S)     0.00017       0.57745
     4    H    1  px     Ryd( 2p)     0.00277       2.32194
     5    H    1  px     Ryd( 3p)     0.00000       3.49193
     6    H    1  py     Ryd( 2p)     0.00110       2.98213
     7    H    1  py     Ryd( 3p)     0.00052       3.72875
     8    H    1  pz     Ryd( 2p)     0.00130       3.18702
     9    H    1  pz     Ryd( 3p)     0.00134       3.70355
    10    H    1  dxy    Ryd( 3d)     0.00003       3.85427
    11    H    1  dxz    Ryd( 3d)     0.00005       3.96552
    12    H    1  dyz    Ryd( 3d)     0.00003       4.40152
    13    H    1  dx2y2  Ryd( 3d)     0.00026       4.04198
    14    H    1  dz2    Ryd( 3d)     0.00003       4.23488

    15    H    2  S      Val( 1S)     0.55500       0.13162
    16    H    2  S      Ryd( 2S)     0.00079       0.79636
    17    H    2  S      Ryd( 3S)     0.00006       1.79566
    18    H    2  px     Ryd( 2p)     0.00252       1.59796
    19    H    2  px     Ryd( 3p)     0.00001       3.55696
    20    H    2  py     Ryd( 2p)     0.00051       2.39873
    21    H    2  py     Ryd( 3p)     0.00050       3.88022
    22    H    2  pz     Ryd( 2p)     0.00186       2.03424
    23    H    2  pz     Ryd( 3p)     0.00058       3.73303
    24    H    2  dxy    Ryd( 3d)     0.00003       3.86493
    25    H    2  dxz    Ryd( 3d)     0.00002       3.67986
    26    H    2  dyz    Ryd( 3d)     0.00001       4.23738
    27    H    2  dx2y2  Ryd( 3d)     0.00020       4.02301
    28    H    2  dz2    Ryd( 3d)     0.00001       3.91401

    29    O    3  S      Cor( 1S)     1.99973     -19.39592
    30    O    3  S      Val( 2S)     1.67939      -1.02713
    31    O    3  S      Ryd( 3S)     0.00149       2.07132
    32    O    3  S      Ryd( 4S)     0.00005       3.07972
    33    O    3  S      Ryd( 5S)     0.00000      43.62950
    34    O    3  px     Val( 2p)     1.98785      -0.40121
    35    O    3  px     Ryd( 3p)     0.00272       0.78397
    36    O    3  px     Ryd( 4p)     0.00000       2.42122
    37    O    3  py     Val( 2p)     1.46230      -0.28417
    38    O    3  py     Ryd( 3p)     0.00431       0.88651
    39    O    3  py     Ryd( 4p)     0.00007       3.20604
    40    O    3  pz     Val( 2p)     1.68247      -0.32215
    41    O    3  pz     Ryd( 3p)     0.00108       0.84384
    42    O    3  pz     Ryd( 4p)     0.00019       3.21295
    43    O    3  dxy    Ryd( 3d)     0.00000       2.40986
    44    O    3  dxy    Ryd( 4d)     0.00001       6.46644
    45    O    3  dxz    Ryd( 3d)     0.00366       2.47230
    46    O    3  dxz    Ryd( 4d)     0.00005       6.52674
    47    O    3  dyz    Ryd( 3d)     0.00181       4.39407
    48    O    3  dyz    Ryd( 4d)     0.00028       7.04557
    49    O    3  dx2y2  Ryd( 3d)     0.00050       2.84135
    50    O    3  dx2y2  Ryd( 4d)     0.00000       6.57581
    51    O    3  dz2    Ryd( 3d)     0.00353       3.12478
    52    O    3  dz2    Ryd( 4d)     0.00004       6.65156
    53    O    3  f(0)   Ryd( 4f)     0.00007       6.17141
    54    O    3  f(C1)  Ryd( 4f)     0.00010       5.86939
    55    O    3  f(S1)  Ryd( 4f)     0.00003       6.66708
    56    O    3  f(C2)  Ryd( 4f)     0.00004       6.40986
    57    O    3  f(S2)  Ryd( 4f)     0.00001       6.11035
    58    O    3  f(C3)  Ryd( 4f)     0.00017       5.80689
    59    O    3  f(S3)  Ryd( 4f)     0.00004       5.82569

 WARNING:  Population inversion found on atom  H    1
           Population inversion found on atom  O    3


 Summary of Natural Population Analysis:                  
                                                          
                                       Natural Population 
                Natural  -----------------------------------------------
    Atom  No    Charge         Core      Valence    Rydberg      Total
 -----------------------------------------------------------------------
      H    1    0.39408      0.00000     0.59751    0.00842     0.60592
      H    2    0.43790      0.00000     0.55500    0.00710     0.56210
      O    3   -0.83197      1.99973     6.81201    0.02023     8.83197
 =======================================================================
   * Total *    0.00000      1.99973     7.96452    0.03575    10.00000

                                 Natural Population      
 --------------------------------------------------------
   Core                       1.99973 ( 99.9866% of   2)
   Valence                    7.96452 ( 99.5565% of   8)
   Natural Minimal Basis      9.96425 ( 99.6425% of  10)
   Natural Rydberg Basis      0.03575 (  0.3575% of  10)
 --------------------------------------------------------

    Atom  No          Natural Electron Configuration
 ----------------------------------------------------------------------------
      H    1            1S( 0.60)2p( 0.01)
      H    2            1S( 0.55)
      O    3      [core]2S( 1.68)2p( 5.13)3p( 0.01)3d( 0.01)


 NBO analysis skipped by request.
   1 Symmetry operations used in ECPInt.
 ECPInt:  NShTT=     276 NPrTT=     694 LenC2=     277 LenP2D=     683.
 LDataN:  DoStor=T MaxTD1= 7 Len=  274
 Calling FoFJK, ICntrl=  10002127 FMM=F ISym2X=0 I1Cent= 0 IOpClX= 0 NMat=1 NMatS=1 NMatT=0.
 -------------------------------------------------------------------
 Center     Atomic                   Forces (Hartrees/Bohr)
 Number     Number              X              Y              Z
 -------------------------------------------------------------------
      1        1           0.000000000    0.342472909   -0.367007479
      2        1           0.000000000   -0.029186564    0.020462342
      3        8           0.000000000   -0.313286345    0.346545137
 -------------------------------------------------------------------
 Cartesian Forces:  Max     0.367007479 RMS     0.228884884

 GradGradGradGradGradGradGradGradGradGradGradGradGradGradGradGradGradGrad
 Berny optimization.
 Search for a local minimum.
 Step number   1 out of a maximum of    2
 All quantities printed in internal units (Hartrees-Bohrs-Radians)
 Second derivative matrix not updated -- first step.
 The second derivative matrix:
                          X1        Y1        Z1        X2        Y2
           X1           1.00000
           Y1           0.00000   0.60969
           Z1           0.00000  -0.67674   0.94670
           X2           0.00000   0.00000   0.00000   1.00000
           Y2           0.00000  -0.03024  -0.02364   0.00000   0.36664
           Z2           0.00000   0.03910   0.03056   0.00000   0.24592
           X3           0.00000   0.00000   0.00000   0.00000   0.00000
           Y3           0.00000  -0.57944   0.70037   0.00000  -0.33640
           Z3           0.00000   0.63764  -0.97726   0.00000  -0.22228
                          Z2        X3        Y3        Z3
           Z2           0.23893
           X3           0.00000   1.00000
           Y3          -0.28502   0.00000   0.91584
           Z3          -0.26949   0.00000  -0.41536   1.24675
 ITU=  0
     Eigenvalues ---    0.17558   0.94561   2.43844
 Quadratic step=5.112D-01 exceeds max=3.000D-01 adjusted using Lamda=-2.354D-01.
 Angle between NR and scaled steps=  20.93 degrees.
 Angle between quadratic step and forces=  39.25 degrees.
 Linear search not attempted -- first point.
 TrRot=  0.000000 -0.035822  0.014293  0.000000  0.000000  0.000000
 Variable       Old X    -DE/DX   Delta X   Delta X   Delta X     New X
                                 (Linear)    (Quad)   (Total)
    X1        0.00000   0.00000   0.00000   0.00000   0.00000   0.00000
    Y1        0.86657   0.34247   0.00000   0.24832   0.21250   1.07907
    Z1       -0.88704  -0.36701   0.00000  -0.12148  -0.10719  -0.99423
    X2        0.00000   0.00000   0.00000   0.00000   0.00000   0.00000
    Y2       -1.43349  -0.02919   0.00000  -0.08208  -0.11790  -1.55139
    Z2       -0.88704   0.02046   0.00000   0.05515   0.06944  -0.81760
    X3        0.00000   0.00000   0.00000   0.00000   0.00000   0.00000
    Y3        0.00000  -0.31329   0.00000  -0.05877  -0.09460  -0.09460
    Z3        0.22176   0.34655   0.00000   0.02345   0.03775   0.25951
         Item               Value     Threshold  Converged?
 Maximum Force            0.367007     0.000450     NO 
 RMS     Force            0.228885     0.000300     NO 
 Maximum Displacement     0.212499     0.001800     NO 
 RMS     Displacement     0.097606     0.001200     NO 
 Predicted change in Energy=-9.046490D-02
 GradGradGradGradGradGradGradGradGradGradGradGradGradGradGradGradGradGrad

 1\1\GINC-CCWSGE0515\Force\RB2PLYP-FC\def2TZVPP\H2O1\ALLOUCHE\16-May-20
 19\0\\# B2PLYP/def2tzvpp nosym scf(tight) force Pop=NPA\\xPert\\0,1\H,
 0.,0.458568,-0.469403\H,0.,-0.758568,-0.469403\O,0.,0.,0.117351\\Versi
 on=EM64L-G09RevD.01\HF=-76.2467526\MP2=-76.3275814\RMSD=3.857e-09\RMSF
 =2.289e-01\Dipole=0.,-0.141386,-0.8037305\PG=CS [SG(H2O1)]\\@


 In the beginning the Universe was created.
 This has made a lot of people very angry
 and been widely regarded as a bad move.
                               -D.Adams
 Job cpu time:       0 days  0 hours  0 minutes 16.2 seconds.
 File lengths (MBytes):  RWF=      5 Int=      0 D2E=      0 Chk=      1 Scr=      1
 Normal termination of Gaussian 09 at Thu May 16 09:05:18 2019.
