 Entering Gaussian System, Link 0=/pbs/throng/ilm/sl6/allouche/Gaussian09D/g09/g09
 Initial command:
 /pbs/throng/ilm/sl6/allouche/Gaussian09D/g09/l1.exe "/scratch/6332042.1.long/Gau-394801.inp" -scrdir="/scratch/6332042.1.long/"
 Entering Link 1 = /pbs/throng/ilm/sl6/allouche/Gaussian09D/g09/l1.exe PID=    394802.
  
 Copyright (c) 1988,1990,1992,1993,1995,1998,2003,2009,2013,
            Gaussian, Inc.  All Rights Reserved.
  
 This is part of the Gaussian(R) 09 program.  It is based on
 the Gaussian(R) 03 system (copyright 2003, Gaussian, Inc.),
 the Gaussian(R) 98 system (copyright 1998, Gaussian, Inc.),
 the Gaussian(R) 94 system (copyright 1995, Gaussian, Inc.),
 the Gaussian 92(TM) system (copyright 1992, Gaussian, Inc.),
 the Gaussian 90(TM) system (copyright 1990, Gaussian, Inc.),
 the Gaussian 88(TM) system (copyright 1988, Gaussian, Inc.),
 the Gaussian 86(TM) system (copyright 1986, Carnegie Mellon
 University), and the Gaussian 82(TM) system (copyright 1983,
 Carnegie Mellon University). Gaussian is a federally registered
 trademark of Gaussian, Inc.
  
 This software contains proprietary and confidential information,
 including trade secrets, belonging to Gaussian, Inc.
  
 This software is provided under written license and may be
 used, copied, transmitted, or stored only in accord with that
 written license.
  
 The following legend is applicable only to US Government
 contracts under FAR:
  
                    RESTRICTED RIGHTS LEGEND
  
 Use, reproduction and disclosure by the US Government is
 subject to restrictions as set forth in subparagraphs (a)
 and (c) of the Commercial Computer Software - Restricted
 Rights clause in FAR 52.227-19.
  
 Gaussian, Inc.
 340 Quinnipiac St., Bldg. 40, Wallingford CT 06492
  
  
 ---------------------------------------------------------------
 Warning -- This program may not be used in any manner that
 competes with the business of Gaussian, Inc. or will provide
 assistance to any competitor of Gaussian, Inc.  The licensee
 of this program is prohibited from giving any competitor of
 Gaussian, Inc. access to this program.  By using this program,
 the user acknowledges that Gaussian, Inc. is engaged in the
 business of creating and licensing software in the field of
 computational chemistry and represents and warrants to the
 licensee that it is not a competitor of Gaussian, Inc. and that
 it will not use this program in any manner prohibited above.
 ---------------------------------------------------------------
  

 Cite this work as:
 Gaussian 09, Revision D.01,
 M. J. Frisch, G. W. Trucks, H. B. Schlegel, G. E. Scuseria, 
 M. A. Robb, J. R. Cheeseman, G. Scalmani, V. Barone, B. Mennucci, 
 G. A. Petersson, H. Nakatsuji, M. Caricato, X. Li, H. P. Hratchian, 
 A. F. Izmaylov, J. Bloino, G. Zheng, J. L. Sonnenberg, M. Hada, 
 M. Ehara, K. Toyota, R. Fukuda, J. Hasegawa, M. Ishida, T. Nakajima, 
 Y. Honda, O. Kitao, H. Nakai, T. Vreven, J. A. Montgomery, Jr., 
 J. E. Peralta, F. Ogliaro, M. Bearpark, J. J. Heyd, E. Brothers, 
 K. N. Kudin, V. N. Staroverov, T. Keith, R. Kobayashi, J. Normand, 
 K. Raghavachari, A. Rendell, J. C. Burant, S. S. Iyengar, J. Tomasi, 
 M. Cossi, N. Rega, J. M. Millam, M. Klene, J. E. Knox, J. B. Cross, 
 V. Bakken, C. Adamo, J. Jaramillo, R. Gomperts, R. E. Stratmann, 
 O. Yazyev, A. J. Austin, R. Cammi, C. Pomelli, J. W. Ochterski, 
 R. L. Martin, K. Morokuma, V. G. Zakrzewski, G. A. Voth, 
 P. Salvador, J. J. Dannenberg, S. Dapprich, A. D. Daniels, 
 O. Farkas, J. B. Foresman, J. V. Ortiz, J. Cioslowski, 
 and D. J. Fox, Gaussian, Inc., Wallingford CT, 2013.
 
 ******************************************
 Gaussian 09:  EM64L-G09RevD.01 24-Apr-2013
                16-May-2019 
 ******************************************
 -------------------------------------------------
 # B2PLYP/def2tzvpp nosym scf(tight) force Pop=NPA
 -------------------------------------------------
 1/10=7,30=1,38=1/1,3;
 2/12=2,15=1,17=6,18=5,40=1/2;
 3/5=44,7=202,11=9,16=1,25=1,30=1,71=1,74=-47/1,2,3;
 4//1;
 5/5=2,32=2,38=5/2;
 8/6=4,10=1/1;
 9/15=2,16=-3/6;
 10/5=1,31=1/2;
 6/7=2,8=2,9=2,10=2,18=1,40=-1/1,7;
 7/12=2,29=1,30=1/1,2,3,16;
 1/10=7,30=1/3;
 99//99;
 -----
 xPert
 -----
 Symbolic Z-matrix:
 Charge =  0 Multiplicity = 1
 H                     0.        0.75857  -0.4694 
 H                     0.       -1.05857  -0.4694 
 O                     0.        0.        0.11735 
 

 GradGradGradGradGradGradGradGradGradGradGradGradGradGradGradGradGradGrad
 Berny optimization.
 Initialization pass.
 Trust Radius=3.00D-01 FncErr=1.00D-07 GrdErr=1.00D-07
 Number of steps in this run=      2 maximum allowed number of steps=      2.
 GradGradGradGradGradGradGradGradGradGradGradGradGradGradGradGradGradGrad

                          Input orientation:                          
 ---------------------------------------------------------------------
 Center     Atomic      Atomic             Coordinates (Angstroms)
 Number     Number       Type             X           Y           Z
 ---------------------------------------------------------------------
      1          1           0        0.000000    0.758568   -0.469403
      2          1           0        0.000000   -1.058568   -0.469403
      3          8           0        0.000000    0.000000    0.117351
 ---------------------------------------------------------------------
                    Distance matrix (angstroms):
                    1          2          3
     1  H    0.000000
     2  H    1.817136   0.000000
     3  O    0.959013   1.210308   0.000000
 Symmetry turned off by external request.
 Stoichiometry    H2O
 Framework group  CS[SG(H2O)]
 Deg. of freedom     3
 Full point group                 CS      NOp   2
 Rotational constants (GHZ):    850.9087604    292.7113290    217.7914120
 Standard basis: def2TZVPP (5D, 7F)
    59 basis functions,    85 primitive gaussians,    66 cartesian basis functions
     5 alpha electrons        5 beta electrons
       nuclear repulsion energy         8.2033649162 Hartrees.
 NAtoms=    3 NActive=    3 NUniq=    3 SFac= 1.00D+00 NAtFMM=   60 NAOKFM=F Big=F
 Integral buffers will be    131072 words long.
 Regular integral format.
 Two-electron integral symmetry is turned off.
 One-electron integrals computed using PRISM.
   1 Symmetry operations used in ECPInt.
 ECPInt:  NShTT=     276 NPrTT=     694 LenC2=     277 LenP2D=     680.
 LDataN:  DoStor=T MaxTD1= 6 Len=  172
 NBasis=    59 RedAO= T EigKep=  2.76D-03  NBF=    59
 NBsUse=    59 1.00D-06 EigRej= -1.00D+00 NBFU=    59
 ExpMin= 1.03D-01 ExpMax= 2.70D+04 ExpMxC= 9.22D+02 IAcc=1 IRadAn=         1 AccDes= 0.00D+00
 Harris functional with IExCor=  419 and IRadAn=       1 diagonalized for initial guess.
 HarFok:  IExCor=  419 AccDes= 0.00D+00 IRadAn=         1 IDoV= 1 UseB2=F ITyADJ=14
 ICtDFT=  3500011 ScaDFX=  1.000000  1.000000  1.000000  1.000000
 FoFCou: FMM=F IPFlag=           0 FMFlag=      100000 FMFlg1=           0
         NFxFlg=           0 DoJE=T BraDBF=F KetDBF=T FulRan=T
         wScrn=  0.000000 ICntrl=     500 IOpCl=  0 I1Cent=   200000004 NGrid=           0
         NMat0=    1 NMatS0=      1 NMatT0=    0 NMatD0=    1 NMtDS0=    0 NMtDT0=    0
 Symmetry not used in FoFCou.
 Keep R1 ints in memory in canonical form, NReq=3557607.
 Requested convergence on RMS density matrix=1.00D-08 within 128 cycles.
 Requested convergence on MAX density matrix=1.00D-06.
 Requested convergence on             energy=1.00D-06.
 No special actions if energy rises.
 Integral accuracy reduced to 1.0D-05 until final iterations.
 Initial convergence to 1.0D-05 achieved.  Increase integral accuracy.
 SCF Done:  E(RB2PLYP) =  -76.2859240171     A.U. after   12 cycles
            NFock= 12  Conv=0.49D-09     -V/T= 2.0062
 DoSCS=T DFT=T ScalE2(SS,OS)=  0.270000  0.270000
 ExpMin= 1.03D-01 ExpMax= 2.70D+04 ExpMxC= 9.22D+02 IAcc=3 IRadAn=         5 AccDes= 0.00D+00
 HarFok:  IExCor=  205 AccDes= 0.00D+00 IRadAn=         5 IDoV=-2 UseB2=F ITyADJ=14
 ICtDFT= 12500011 ScaDFX=  1.000000  1.000000  1.000000  1.000000
 Range of M.O.s used for correlation:     2    59
 NBasis=    59 NAE=     5 NBE=     5 NFC=     1 NFV=     0
 NROrb=     58 NOA=     4 NOB=     4 NVA=    54 NVB=    54
 DoSCS=T DFT=T ScalE2(SS,OS)=  0.270000  0.270000
 Fully direct method using O(ONN) memory.
 JobTyp=1 Pass  1:  I=   2 to   5 NPSUse=  1 ParTrn=F ParDer=F DoDerP=T.
 Spin components of T(2) and E(2):
     alpha-alpha T2 =       0.1325219894D-01 E2=     -0.1058835977D-01
     alpha-beta  T2 =       0.8209180465D-01 E2=     -0.6634550647D-01
     beta-beta   T2 =       0.1325219894D-01 E2=     -0.1058835977D-01
 E2(B2PLYP) =    -0.8752222600D-01 E(B2PLYP) =    -0.76373446243125D+02
          IDoAtm=111
          Differentiating once with respect to electric field.
                with respect to dipole field.
          Differentiating once with respect to nuclear coordinates.
 Keep R1 ints in memory in canonical form, NReq=3533313.
          There are     1 degrees of freedom in the 1st order CPHF.  IDoFFX=0 NUNeed=     1.
 LinEq1:  Iter=  0 NonCon=     1 RMS=2.40D-03 Max=1.95D-02 NDo=     1
 AX will form     1 AO Fock derivatives at one time.
 LinEq1:  Iter=  1 NonCon=     1 RMS=3.39D-04 Max=2.60D-03 NDo=     1
 LinEq1:  Iter=  2 NonCon=     1 RMS=1.26D-04 Max=9.25D-04 NDo=     1
 LinEq1:  Iter=  3 NonCon=     1 RMS=5.59D-05 Max=3.58D-04 NDo=     1
 LinEq1:  Iter=  4 NonCon=     1 RMS=1.36D-05 Max=6.75D-05 NDo=     1
 LinEq1:  Iter=  5 NonCon=     1 RMS=2.30D-06 Max=2.09D-05 NDo=     1
 LinEq1:  Iter=  6 NonCon=     1 RMS=5.37D-07 Max=3.02D-06 NDo=     1
 LinEq1:  Iter=  7 NonCon=     1 RMS=7.12D-08 Max=3.56D-07 NDo=     1
 LinEq1:  Iter=  8 NonCon=     1 RMS=9.64D-09 Max=8.31D-08 NDo=     1
 LinEq1:  Iter=  9 NonCon=     1 RMS=8.76D-10 Max=6.42D-09 NDo=     1
 LinEq1:  Iter= 10 NonCon=     0 RMS=8.92D-11 Max=4.63D-10 NDo=     1
 Linear equations converged to 1.000D-10 1.000D-09 after    10 iterations.
 End of Minotr F.D. properties file   721 does not exist.
 End of Minotr F.D. properties file   722 does not exist.
 End of Minotr F.D. properties file   788 does not exist.

 **********************************************************************

            Population analysis using the SCF density.

 **********************************************************************

 Alpha  occ. eigenvalues --  -19.73663  -1.10797  -0.57144  -0.43724  -0.38550
 Alpha virt. eigenvalues --    0.02794   0.11659   0.35133   0.44322   0.48493
 Alpha virt. eigenvalues --    0.49581   0.59119   0.62133   0.70917   0.76804
 Alpha virt. eigenvalues --    0.86067   0.98076   1.14441   1.29299   1.74551
 Alpha virt. eigenvalues --    1.81755   1.89453   1.92595   2.07450   2.38861
 Alpha virt. eigenvalues --    2.49492   2.67633   2.83646   3.05125   3.24841
 Alpha virt. eigenvalues --    3.27630   3.28656   3.32496   3.45139   3.50522
 Alpha virt. eigenvalues --    3.69327   3.70096   3.74705   3.89454   4.02156
 Alpha virt. eigenvalues --    4.06832   4.17369   4.43828   4.62127   4.90531
 Alpha virt. eigenvalues --    4.96307   5.54848   5.72605   5.98986   6.59422
 Alpha virt. eigenvalues --    6.62849   6.70027   6.76285   6.85368   6.86193
 Alpha virt. eigenvalues --    7.17957   7.42303   7.72199  44.02729
          Condensed to atoms (all electrons):
               1          2          3
     1  H    0.466651  -0.017962   0.328316
     2  H   -0.017962   0.460712   0.278326
     3  O    0.328316   0.278326   7.895276
 Mulliken charges:
               1
     1  H    0.222995
     2  H    0.278923
     3  O   -0.501918
 Sum of Mulliken charges =   0.00000
 Mulliken charges with hydrogens summed into heavy atoms:
               1
     3  O    0.000000
 Electronic spatial extent (au):  <R**2>=             21.2590
 Charge=              0.0000 electrons
 Dipole moment (field-independent basis, Debye):
    X=              0.0000    Y=             -0.3560    Z=             -1.8999  Tot=              1.9330
 Quadrupole moment (field-independent basis, Debye-Ang):
   XX=             -7.7424   YY=             -3.4760   ZZ=             -6.5837
   XY=              0.0000   XZ=              0.0000   YZ=              0.1756
 Traceless Quadrupole moment (field-independent basis, Debye-Ang):
   XX=             -1.8084   YY=              2.4580   ZZ=             -0.6497
   XY=              0.0000   XZ=              0.0000   YZ=              0.1756
 Octapole moment (field-independent basis, Debye-Ang**2):
  XXX=              0.0000  YYY=             -0.5885  ZZZ=             -0.8615  XYY=              0.0000
  XXY=              0.3464  XXZ=             -0.1972  XZZ=              0.0000  YZZ=              0.2293
  YYZ=             -1.7463  XYZ=              0.0000
 Hexadecapole moment (field-independent basis, Debye-Ang**3):
 XXXX=             -6.6227 YYYY=             -6.5259 ZZZZ=             -7.7765 XXXY=              0.0000
 XXXZ=              0.0000 YYYX=              0.0000 YYYZ=              0.3316 ZZZX=              0.0000
 ZZZY=             -0.4479 XXYY=             -2.8958 XXZZ=             -2.4507 YYZZ=             -2.1681
 XXYZ=             -0.1650 YYXZ=              0.0000 ZZXY=              0.0000
 N-N= 8.203364916165D+00 E-N=-1.971336570516D+02  KE= 7.581664475503D+01
 ******************************Gaussian NBO Version 3.1******************************
             N A T U R A L   A T O M I C   O R B I T A L   A N D
          N A T U R A L   B O N D   O R B I T A L   A N A L Y S I S
 ******************************Gaussian NBO Version 3.1******************************
       /RESON  / : Allow strongly delocalized NBO set

 Analyzing the SCF density

 Job title: xPert                                                           

 Storage needed:     10799 in NPA ( 536870855 available)


 NATURAL POPULATIONS:  Natural atomic orbital occupancies 
                                                          
   NAO  Atom  No  lang   Type(AO)    Occupancy      Energy
 ----------------------------------------------------------
     1    H    1  S      Val( 1S)     0.52715       0.19659
     2    H    1  S      Ryd( 2S)     0.00190       0.83125
     3    H    1  S      Ryd( 3S)     0.00012       1.68141
     4    H    1  px     Ryd( 2p)     0.00204       1.77199
     5    H    1  px     Ryd( 3p)     0.00000       3.39932
     6    H    1  py     Ryd( 2p)     0.00025       2.51257
     7    H    1  py     Ryd( 3p)     0.00082       3.62992
     8    H    1  pz     Ryd( 2p)     0.00111       2.17637
     9    H    1  pz     Ryd( 3p)     0.00059       3.57909
    10    H    1  dxy    Ryd( 3d)     0.00002       3.85169
    11    H    1  dxz    Ryd( 3d)     0.00000       3.68118
    12    H    1  dyz    Ryd( 3d)     0.00005       4.14376
    13    H    1  dx2y2  Ryd( 3d)     0.00007       3.89037
    14    H    1  dz2    Ryd( 3d)     0.00002       3.91147

    15    H    2  S      Val( 1S)     0.52480      -0.02754
    16    H    2  S      Ryd( 2S)     0.00147       0.68603
    17    H    2  S      Ryd( 3S)     0.00012       1.99859
    18    H    2  px     Ryd( 2p)     0.00126       1.29827
    19    H    2  px     Ryd( 3p)     0.00001       3.39822
    20    H    2  py     Ryd( 2p)     0.00043       2.42010
    21    H    2  py     Ryd( 3p)     0.00025       3.75156
    22    H    2  pz     Ryd( 2p)     0.00086       1.64835
    23    H    2  pz     Ryd( 3p)     0.00018       3.54981
    24    H    2  dxy    Ryd( 3d)     0.00002       3.69264
    25    H    2  dxz    Ryd( 3d)     0.00000       3.42938
    26    H    2  dyz    Ryd( 3d)     0.00001       3.93024
    27    H    2  dx2y2  Ryd( 3d)     0.00003       3.80541
    28    H    2  dz2    Ryd( 3d)     0.00002       3.61381

    29    O    3  S      Cor( 1S)     1.99986     -19.56099
    30    O    3  S      Val( 2S)     1.79629      -1.06132
    31    O    3  S      Ryd( 4S)     0.00042       3.32340
    32    O    3  S      Ryd( 3S)     0.00003       2.12751
    33    O    3  S      Ryd( 5S)     0.00000      42.56520
    34    O    3  px     Val( 2p)     1.99437      -0.38115
    35    O    3  px     Ryd( 3p)     0.00037       0.59233
    36    O    3  px     Ryd( 4p)     0.00000       2.70023
    37    O    3  py     Val( 2p)     1.43574      -0.29796
    38    O    3  py     Ryd( 3p)     0.00134       0.64070
    39    O    3  py     Ryd( 4p)     0.00003       3.36516
    40    O    3  pz     Val( 2p)     1.70048      -0.33795
    41    O    3  pz     Ryd( 3p)     0.00052       0.60423
    42    O    3  pz     Ryd( 4p)     0.00018       3.03230
    43    O    3  dxy    Ryd( 3d)     0.00004       2.19941
    44    O    3  dxy    Ryd( 4d)     0.00000       6.54811
    45    O    3  dxz    Ryd( 3d)     0.00167       2.01156
    46    O    3  dxz    Ryd( 4d)     0.00002       6.46916
    47    O    3  dyz    Ryd( 3d)     0.00199       3.00465
    48    O    3  dyz    Ryd( 4d)     0.00008       6.95850
    49    O    3  dx2y2  Ryd( 3d)     0.00091       2.56335
    50    O    3  dx2y2  Ryd( 4d)     0.00002       6.71815
    51    O    3  dz2    Ryd( 3d)     0.00167       2.28696
    52    O    3  dz2    Ryd( 4d)     0.00002       6.59439
    53    O    3  f(0)   Ryd( 4f)     0.00001       5.74023
    54    O    3  f(C1)  Ryd( 4f)     0.00001       5.46253
    55    O    3  f(S1)  Ryd( 4f)     0.00002       6.10644
    56    O    3  f(C2)  Ryd( 4f)     0.00008       6.07971
    57    O    3  f(S2)  Ryd( 4f)     0.00001       5.83736
    58    O    3  f(C3)  Ryd( 4f)     0.00015       5.76234
    59    O    3  f(S3)  Ryd( 4f)     0.00006       5.78678

 WARNING:  Population inversion found on atom  H    1
           Population inversion found on atom  O    3


 Summary of Natural Population Analysis:                  
                                                          
                                       Natural Population 
                Natural  -----------------------------------------------
    Atom  No    Charge         Core      Valence    Rydberg      Total
 -----------------------------------------------------------------------
      H    1    0.46586      0.00000     0.52715    0.00700     0.53414
      H    2    0.47053      0.00000     0.52480    0.00467     0.52947
      O    3   -0.93638      1.99986     6.92688    0.00965     8.93638
 =======================================================================
   * Total *    0.00000      1.99986     7.97883    0.02132    10.00000

                                 Natural Population      
 --------------------------------------------------------
   Core                       1.99986 ( 99.9928% of   2)
   Valence                    7.97883 ( 99.7353% of   8)
   Natural Minimal Basis      9.97868 ( 99.7868% of  10)
   Natural Rydberg Basis      0.02132 (  0.2132% of  10)
 --------------------------------------------------------

    Atom  No          Natural Electron Configuration
 ----------------------------------------------------------------------------
      H    1            1S( 0.53)
      H    2            1S( 0.52)
      O    3      [core]2S( 1.80)2p( 5.13)3d( 0.01)


 NBO analysis skipped by request.
   1 Symmetry operations used in ECPInt.
 ECPInt:  NShTT=     276 NPrTT=     694 LenC2=     277 LenP2D=     680.
 LDataN:  DoStor=T MaxTD1= 7 Len=  274
 Calling FoFJK, ICntrl=  10002127 FMM=F ISym2X=0 I1Cent= 0 IOpClX= 0 NMat=1 NMatS=1 NMatT=0.
 -------------------------------------------------------------------
 Center     Atomic                   Forces (Hartrees/Bohr)
 Number     Number              X              Y              Z
 -------------------------------------------------------------------
      1        1           0.000000000   -0.010691635   -0.015119913
      2        1           0.000000000    0.111409780    0.044992707
      3        8           0.000000000   -0.100718145   -0.029872794
 -------------------------------------------------------------------
 Cartesian Forces:  Max     0.111409780 RMS     0.053557792

 GradGradGradGradGradGradGradGradGradGradGradGradGradGradGradGradGradGrad
 Berny optimization.
 Search for a local minimum.
 Step number   1 out of a maximum of    2
 All quantities printed in internal units (Hartrees-Bohrs-Radians)
 Second derivative matrix not updated -- first step.
 The second derivative matrix:
                          X1        Y1        Z1        X2        Y2
           X1           1.00000
           Y1           0.00000   0.36664
           Z1           0.00000  -0.24592   0.23893
           X2           0.00000   0.00000   0.00000   1.00000
           Y2           0.00000  -0.01145  -0.01480   0.00000   0.19023
           Z2           0.00000   0.02066   0.02671   0.00000   0.08849
           X3           0.00000   0.00000   0.00000   0.00000   0.00000
           Y3           0.00000  -0.35519   0.26072   0.00000  -0.17878
           Z3           0.00000   0.22526  -0.26564   0.00000  -0.07369
                          Z2        X3        Y3        Z3
           Z2           0.07964
           X3           0.00000   1.00000
           Y3          -0.10915   0.00000   0.53398
           Z3          -0.10634   0.00000  -0.15158   0.37198
 ITU=  0
     Eigenvalues ---    0.12285   0.40417   0.93842
 Quadratic step=5.320D-01 exceeds max=3.000D-01 adjusted using Lamda=-1.578D-01.
 Angle between NR and scaled steps=  14.24 degrees.
 Angle between quadratic step and forces=  29.28 degrees.
 Linear search not attempted -- first point.
 TrRot=  0.000000 -0.041955 -0.006943  0.000000  0.000000  0.000000
 Variable       Old X    -DE/DX   Delta X   Delta X   Delta X     New X
                                 (Linear)    (Quad)   (Total)
    X1        0.00000   0.00000   0.00000   0.00000   0.00000   0.00000
    Y1        1.43349  -0.01069   0.00000  -0.07356  -0.11551   1.31798
    Z1       -0.88704  -0.01512   0.00000  -0.04410  -0.05104  -0.93809
    X2        0.00000   0.00000   0.00000   0.00000   0.00000   0.00000
    Y2       -2.00040   0.11141   0.00000   0.26826   0.22630  -1.77410
    Z2       -0.88704   0.04499   0.00000   0.07632   0.06938  -0.81767
    X3        0.00000   0.00000   0.00000   0.00000   0.00000   0.00000
    Y3        0.00000  -0.10072   0.00000  -0.06884  -0.11079  -0.11079
    Z3        0.22176  -0.02987   0.00000  -0.01139  -0.01833   0.20343
         Item               Value     Threshold  Converged?
 Maximum Force            0.111410     0.000450     NO 
 RMS     Force            0.053558     0.000300     NO 
 Maximum Displacement     0.226303     0.001800     NO 
 RMS     Displacement     0.096945     0.001200     NO 
 Predicted change in Energy=-2.812596D-02
 GradGradGradGradGradGradGradGradGradGradGradGradGradGradGradGradGradGrad

 1\1\GINC-CCWSGE0180\Force\RB2PLYP-FC\def2TZVPP\H2O1\ALLOUCHE\16-May-20
 19\0\\# B2PLYP/def2tzvpp nosym scf(tight) force Pop=NPA\\xPert\\0,1\H,
 0.,0.758568,-0.469403\H,0.,-1.058568,-0.469403\O,0.,0.,0.117351\\Versi
 on=EM64L-G09RevD.01\HF=-76.285924\MP2=-76.3734462\RMSD=4.909e-10\RMSF=
 5.356e-02\Dipole=0.,-0.1318235,-0.7252891\PG=CS [SG(H2O1)]\\@


 IF AT FIRST YOU DON'T SUCCEED, TRY LOOKING IN 
 THE WASTEBASKET FOR THE DIRECTIONS.
 Job cpu time:       0 days  0 hours  0 minutes 17.7 seconds.
 File lengths (MBytes):  RWF=      5 Int=      0 D2E=      0 Chk=      1 Scr=      1
 Normal termination of Gaussian 09 at Thu May 16 09:05:28 2019.
