 Entering Gaussian System, Link 0=/pbs/throng/ilm/sl6/allouche/Gaussian09D/g09/g09
 Initial command:
 /pbs/throng/ilm/sl6/allouche/Gaussian09D/g09/l1.exe "/scratch/6332043.1.long/Gau-66817.inp" -scrdir="/scratch/6332043.1.long/"
 Entering Link 1 = /pbs/throng/ilm/sl6/allouche/Gaussian09D/g09/l1.exe PID=     66818.
  
 Copyright (c) 1988,1990,1992,1993,1995,1998,2003,2009,2013,
            Gaussian, Inc.  All Rights Reserved.
  
 This is part of the Gaussian(R) 09 program.  It is based on
 the Gaussian(R) 03 system (copyright 2003, Gaussian, Inc.),
 the Gaussian(R) 98 system (copyright 1998, Gaussian, Inc.),
 the Gaussian(R) 94 system (copyright 1995, Gaussian, Inc.),
 the Gaussian 92(TM) system (copyright 1992, Gaussian, Inc.),
 the Gaussian 90(TM) system (copyright 1990, Gaussian, Inc.),
 the Gaussian 88(TM) system (copyright 1988, Gaussian, Inc.),
 the Gaussian 86(TM) system (copyright 1986, Carnegie Mellon
 University), and the Gaussian 82(TM) system (copyright 1983,
 Carnegie Mellon University). Gaussian is a federally registered
 trademark of Gaussian, Inc.
  
 This software contains proprietary and confidential information,
 including trade secrets, belonging to Gaussian, Inc.
  
 This software is provided under written license and may be
 used, copied, transmitted, or stored only in accord with that
 written license.
  
 The following legend is applicable only to US Government
 contracts under FAR:
  
                    RESTRICTED RIGHTS LEGEND
  
 Use, reproduction and disclosure by the US Government is
 subject to restrictions as set forth in subparagraphs (a)
 and (c) of the Commercial Computer Software - Restricted
 Rights clause in FAR 52.227-19.
  
 Gaussian, Inc.
 340 Quinnipiac St., Bldg. 40, Wallingford CT 06492
  
  
 ---------------------------------------------------------------
 Warning -- This program may not be used in any manner that
 competes with the business of Gaussian, Inc. or will provide
 assistance to any competitor of Gaussian, Inc.  The licensee
 of this program is prohibited from giving any competitor of
 Gaussian, Inc. access to this program.  By using this program,
 the user acknowledges that Gaussian, Inc. is engaged in the
 business of creating and licensing software in the field of
 computational chemistry and represents and warrants to the
 licensee that it is not a competitor of Gaussian, Inc. and that
 it will not use this program in any manner prohibited above.
 ---------------------------------------------------------------
  

 Cite this work as:
 Gaussian 09, Revision D.01,
 M. J. Frisch, G. W. Trucks, H. B. Schlegel, G. E. Scuseria, 
 M. A. Robb, J. R. Cheeseman, G. Scalmani, V. Barone, B. Mennucci, 
 G. A. Petersson, H. Nakatsuji, M. Caricato, X. Li, H. P. Hratchian, 
 A. F. Izmaylov, J. Bloino, G. Zheng, J. L. Sonnenberg, M. Hada, 
 M. Ehara, K. Toyota, R. Fukuda, J. Hasegawa, M. Ishida, T. Nakajima, 
 Y. Honda, O. Kitao, H. Nakai, T. Vreven, J. A. Montgomery, Jr., 
 J. E. Peralta, F. Ogliaro, M. Bearpark, J. J. Heyd, E. Brothers, 
 K. N. Kudin, V. N. Staroverov, T. Keith, R. Kobayashi, J. Normand, 
 K. Raghavachari, A. Rendell, J. C. Burant, S. S. Iyengar, J. Tomasi, 
 M. Cossi, N. Rega, J. M. Millam, M. Klene, J. E. Knox, J. B. Cross, 
 V. Bakken, C. Adamo, J. Jaramillo, R. Gomperts, R. E. Stratmann, 
 O. Yazyev, A. J. Austin, R. Cammi, C. Pomelli, J. W. Ochterski, 
 R. L. Martin, K. Morokuma, V. G. Zakrzewski, G. A. Voth, 
 P. Salvador, J. J. Dannenberg, S. Dapprich, A. D. Daniels, 
 O. Farkas, J. B. Foresman, J. V. Ortiz, J. Cioslowski, 
 and D. J. Fox, Gaussian, Inc., Wallingford CT, 2013.
 
 ******************************************
 Gaussian 09:  EM64L-G09RevD.01 24-Apr-2013
                16-May-2019 
 ******************************************
 -------------------------------------------------
 # B2PLYP/def2tzvpp nosym scf(tight) force Pop=NPA
 -------------------------------------------------
 1/10=7,30=1,38=1/1,3;
 2/12=2,15=1,17=6,18=5,40=1/2;
 3/5=44,7=202,11=9,16=1,25=1,30=1,71=1,74=-47/1,2,3;
 4//1;
 5/5=2,32=2,38=5/2;
 8/6=4,10=1/1;
 9/15=2,16=-3/6;
 10/5=1,31=1/2;
 6/7=2,8=2,9=2,10=2,18=1,40=-1/1,7;
 7/12=2,29=1,30=1/1,2,3,16;
 1/10=7,30=1/3;
 99//99;
 -----
 xPert
 -----
 Symbolic Z-matrix:
 Charge =  0 Multiplicity = 1
 H                     0.        0.75857  -0.4694 
 H                     0.       -0.75857  -0.4694 
 O                     0.       -0.3       0.11735 
 

 GradGradGradGradGradGradGradGradGradGradGradGradGradGradGradGradGradGrad
 Berny optimization.
 Initialization pass.
 Trust Radius=3.00D-01 FncErr=1.00D-07 GrdErr=1.00D-07
 Number of steps in this run=      2 maximum allowed number of steps=      2.
 GradGradGradGradGradGradGradGradGradGradGradGradGradGradGradGradGradGrad

                          Input orientation:                          
 ---------------------------------------------------------------------
 Center     Atomic      Atomic             Coordinates (Angstroms)
 Number     Number       Type             X           Y           Z
 ---------------------------------------------------------------------
      1          1           0        0.000000    0.758568   -0.469403
      2          1           0        0.000000   -0.758568   -0.469403
      3          8           0        0.000000   -0.300000    0.117351
 ---------------------------------------------------------------------
                    Distance matrix (angstroms):
                    1          2          3
     1  H    0.000000
     2  H    1.517136   0.000000
     3  O    1.210308   0.744691   0.000000
 Symmetry turned off by external request.
 Stoichiometry    H2O
 Framework group  CS[SG(H2O)]
 Deg. of freedom     3
 Full point group                 CS      NOp   2
 Rotational constants (GHZ):   1019.0320378    350.6392474    260.8747301
 Standard basis: def2TZVPP (5D, 7F)
    59 basis functions,    85 primitive gaussians,    66 cartesian basis functions
     5 alpha electrons        5 beta electrons
       nuclear repulsion energy         9.5313975917 Hartrees.
 NAtoms=    3 NActive=    3 NUniq=    3 SFac= 1.00D+00 NAtFMM=   60 NAOKFM=F Big=F
 Integral buffers will be    131072 words long.
 Regular integral format.
 Two-electron integral symmetry is turned off.
 One-electron integrals computed using PRISM.
   1 Symmetry operations used in ECPInt.
 ECPInt:  NShTT=     276 NPrTT=     694 LenC2=     277 LenP2D=     682.
 LDataN:  DoStor=T MaxTD1= 6 Len=  172
 NBasis=    59 RedAO= T EigKep=  1.41D-03  NBF=    59
 NBsUse=    59 1.00D-06 EigRej= -1.00D+00 NBFU=    59
 ExpMin= 1.03D-01 ExpMax= 2.70D+04 ExpMxC= 9.22D+02 IAcc=1 IRadAn=         1 AccDes= 0.00D+00
 Harris functional with IExCor=  419 and IRadAn=       1 diagonalized for initial guess.
 HarFok:  IExCor=  419 AccDes= 0.00D+00 IRadAn=         1 IDoV= 1 UseB2=F ITyADJ=14
 ICtDFT=  3500011 ScaDFX=  1.000000  1.000000  1.000000  1.000000
 FoFCou: FMM=F IPFlag=           0 FMFlag=      100000 FMFlg1=           0
         NFxFlg=           0 DoJE=T BraDBF=F KetDBF=T FulRan=T
         wScrn=  0.000000 ICntrl=     500 IOpCl=  0 I1Cent=   200000004 NGrid=           0
         NMat0=    1 NMatS0=      1 NMatT0=    0 NMatD0=    1 NMtDS0=    0 NMtDT0=    0
 Symmetry not used in FoFCou.
 Keep R1 ints in memory in canonical form, NReq=3557621.
 Requested convergence on RMS density matrix=1.00D-08 within 128 cycles.
 Requested convergence on MAX density matrix=1.00D-06.
 Requested convergence on             energy=1.00D-06.
 No special actions if energy rises.
 Integral accuracy reduced to 1.0D-05 until final iterations.
 Initial convergence to 1.0D-05 achieved.  Increase integral accuracy.
 SCF Done:  E(RB2PLYP) =  -76.2144475939     A.U. after   11 cycles
            NFock= 11  Conv=0.22D-08     -V/T= 1.9970
 DoSCS=T DFT=T ScalE2(SS,OS)=  0.270000  0.270000
 ExpMin= 1.03D-01 ExpMax= 2.70D+04 ExpMxC= 9.22D+02 IAcc=3 IRadAn=         5 AccDes= 0.00D+00
 HarFok:  IExCor=  205 AccDes= 0.00D+00 IRadAn=         5 IDoV=-2 UseB2=F ITyADJ=14
 ICtDFT= 12500011 ScaDFX=  1.000000  1.000000  1.000000  1.000000
 Range of M.O.s used for correlation:     2    59
 NBasis=    59 NAE=     5 NBE=     5 NFC=     1 NFV=     0
 NROrb=     58 NOA=     4 NOB=     4 NVA=    54 NVB=    54

 **** Warning!!: The largest alpha MO coefficient is  0.10133066D+02

 DoSCS=T DFT=T ScalE2(SS,OS)=  0.270000  0.270000
 Fully direct method using O(ONN) memory.
 JobTyp=1 Pass  1:  I=   2 to   5 NPSUse=  1 ParTrn=F ParDer=F DoDerP=T.
 Spin components of T(2) and E(2):
     alpha-alpha T2 =       0.1176506137D-01 E2=     -0.1018593768D-01
     alpha-beta  T2 =       0.7367893798D-01 E2=     -0.6403487104D-01
     beta-beta   T2 =       0.1176506137D-01 E2=     -0.1018593768D-01
 E2(B2PLYP) =    -0.8440674639D-01 E(B2PLYP) =    -0.76298854340305D+02
          IDoAtm=111
          Differentiating once with respect to electric field.
                with respect to dipole field.
          Differentiating once with respect to nuclear coordinates.
 Keep R1 ints in memory in canonical form, NReq=3533332.
          There are     1 degrees of freedom in the 1st order CPHF.  IDoFFX=0 NUNeed=     1.
 LinEq1:  Iter=  0 NonCon=     1 RMS=2.19D-03 Max=1.70D-02 NDo=     1
 AX will form     1 AO Fock derivatives at one time.
 LinEq1:  Iter=  1 NonCon=     1 RMS=3.46D-04 Max=2.66D-03 NDo=     1
 LinEq1:  Iter=  2 NonCon=     1 RMS=7.82D-05 Max=4.39D-04 NDo=     1
 LinEq1:  Iter=  3 NonCon=     1 RMS=3.34D-05 Max=2.53D-04 NDo=     1
 LinEq1:  Iter=  4 NonCon=     1 RMS=1.04D-05 Max=6.13D-05 NDo=     1
 LinEq1:  Iter=  5 NonCon=     1 RMS=9.07D-07 Max=4.19D-06 NDo=     1
 LinEq1:  Iter=  6 NonCon=     1 RMS=1.43D-07 Max=7.20D-07 NDo=     1
 LinEq1:  Iter=  7 NonCon=     1 RMS=2.68D-08 Max=1.71D-07 NDo=     1
 LinEq1:  Iter=  8 NonCon=     1 RMS=2.26D-09 Max=1.46D-08 NDo=     1
 LinEq1:  Iter=  9 NonCon=     1 RMS=2.32D-10 Max=2.08D-09 NDo=     1
 LinEq1:  Iter= 10 NonCon=     0 RMS=2.57D-11 Max=1.80D-10 NDo=     1
 Linear equations converged to 1.000D-10 1.000D-09 after    10 iterations.
 End of Minotr F.D. properties file   721 does not exist.
 End of Minotr F.D. properties file   722 does not exist.
 End of Minotr F.D. properties file   788 does not exist.

 **********************************************************************

            Population analysis using the SCF density.

 **********************************************************************

 Alpha  occ. eigenvalues --  -19.72168  -1.19470  -0.59853  -0.47089  -0.39995
 Alpha virt. eigenvalues --    0.02888   0.13417   0.34551   0.45336   0.48592
 Alpha virt. eigenvalues --    0.53483   0.64012   0.67114   0.70273   0.73705
 Alpha virt. eigenvalues --    0.84754   1.07475   1.13505   1.45211   1.74276
 Alpha virt. eigenvalues --    1.76132   1.96193   1.98363   2.03048   2.39984
 Alpha virt. eigenvalues --    2.54374   2.63772   2.86118   3.00549   3.16575
 Alpha virt. eigenvalues --    3.25605   3.41927   3.42407   3.53135   3.72993
 Alpha virt. eigenvalues --    3.74401   3.75910   3.86730   3.94778   4.13719
 Alpha virt. eigenvalues --    4.31292   4.50778   4.68113   4.86438   4.94969
 Alpha virt. eigenvalues --    5.71099   5.85596   5.98202   6.20447   6.34376
 Alpha virt. eigenvalues --    6.52072   6.71028   6.82148   7.25184   7.72416
 Alpha virt. eigenvalues --    7.81993   7.92001   8.79870  44.43113
          Condensed to atoms (all electrons):
               1          2          3
     1  H    0.483917  -0.025442   0.282962
     2  H   -0.025442   0.592064   0.404557
     3  O    0.282962   0.404557   7.599863
 Mulliken charges:
               1
     1  H    0.258562
     2  H    0.028820
     3  O   -0.287382
 Sum of Mulliken charges =   0.00000
 Mulliken charges with hydrogens summed into heavy atoms:
               1
     3  O    0.000000
 Electronic spatial extent (au):  <R**2>=             22.1566
 Charge=              0.0000 electrons
 Dipole moment (field-independent basis, Debye):
    X=              0.0000    Y=              0.7088    Z=             -2.0059  Tot=              2.1275
 Quadrupole moment (field-independent basis, Debye-Ang):
   XX=             -7.4571   YY=             -4.5402   ZZ=             -6.1721
   XY=              0.0000   XZ=              0.0000   YZ=              0.2150
 Traceless Quadrupole moment (field-independent basis, Debye-Ang):
   XX=             -1.4006   YY=              1.5163   ZZ=             -0.1156
   XY=              0.0000   XZ=              0.0000   YZ=              0.2150
 Octapole moment (field-independent basis, Debye-Ang**2):
  XXX=              0.0000  YYY=              4.3763  ZZZ=             -1.1849  XYY=              0.0000
  XXY=              1.6399  XXZ=             -0.3050  XZZ=              0.0000  YZZ=              1.5262
  YYZ=             -1.4235  XYZ=              0.0000
 Hexadecapole moment (field-independent basis, Debye-Ang**3):
 XXXX=             -6.2334 YYYY=             -9.0887 ZZZZ=             -6.9160 XXXY=              0.0000
 XXXZ=              0.0000 YYYX=              0.0000 YYYZ=              0.8863 ZZZX=              0.0000
 ZZZY=              1.0674 XXYY=             -2.9392 XXZZ=             -2.2476 YYZZ=             -2.3951
 XXYZ=              0.3670 YYXZ=              0.0000 ZZXY=              0.0000
 N-N= 9.531397591658D+00 E-N=-1.999351567841D+02  KE= 7.644264767086D+01
 ******************************Gaussian NBO Version 3.1******************************
             N A T U R A L   A T O M I C   O R B I T A L   A N D
          N A T U R A L   B O N D   O R B I T A L   A N A L Y S I S
 ******************************Gaussian NBO Version 3.1******************************
       /RESON  / : Allow strongly delocalized NBO set

 Analyzing the SCF density

 Job title: xPert                                                           

 Storage needed:     10799 in NPA ( 536870855 available)


 NATURAL POPULATIONS:  Natural atomic orbital occupancies 
                                                          
   NAO  Atom  No  lang   Type(AO)    Occupancy      Energy
 ----------------------------------------------------------
     1    H    1  S      Val( 1S)     0.56209      -0.04878
     2    H    1  S      Ryd( 2S)     0.00079       0.94472
     3    H    1  S      Ryd( 3S)     0.00002       1.75501
     4    H    1  px     Ryd( 2p)     0.00146       1.18678
     5    H    1  px     Ryd( 3p)     0.00001       3.49477
     6    H    1  py     Ryd( 2p)     0.00063       2.36975
     7    H    1  py     Ryd( 3p)     0.00018       3.88916
     8    H    1  pz     Ryd( 2p)     0.00120       1.53930
     9    H    1  pz     Ryd( 3p)     0.00020       3.63357
    10    H    1  dxy    Ryd( 3d)     0.00003       3.68778
    11    H    1  dxz    Ryd( 3d)     0.00000       3.42830
    12    H    1  dyz    Ryd( 3d)     0.00003       3.94952
    13    H    1  dx2y2  Ryd( 3d)     0.00006       3.85187
    14    H    1  dz2    Ryd( 3d)     0.00001       3.61406

    15    H    2  S      Val( 2S)     0.60792       0.56198
    16    H    2  S      Ryd( 3S)     0.00152       1.60648
    17    H    2  S      Ryd( 1S)     0.00010       0.49029
    18    H    2  px     Ryd( 2p)     0.00267       2.47303
    19    H    2  px     Ryd( 3p)     0.00000       3.35358
    20    H    2  py     Ryd( 2p)     0.00094       3.08829
    21    H    2  py     Ryd( 3p)     0.00068       3.55108
    22    H    2  pz     Ryd( 2p)     0.00099       3.32760
    23    H    2  pz     Ryd( 3p)     0.00136       3.53518
    24    H    2  dxy    Ryd( 3d)     0.00002       3.82609
    25    H    2  dxz    Ryd( 3d)     0.00001       3.96956
    26    H    2  dyz    Ryd( 3d)     0.00006       4.33285
    27    H    2  dx2y2  Ryd( 3d)     0.00014       3.93880
    28    H    2  dz2    Ryd( 3d)     0.00003       4.22013

    29    O    3  S      Cor( 1S)     1.99966     -19.43659
    30    O    3  S      Val( 2S)     1.71393      -1.02718
    31    O    3  S      Ryd( 4S)     0.00124       2.70925
    32    O    3  S      Ryd( 3S)     0.00014       2.62291
    33    O    3  S      Ryd( 5S)     0.00000      43.28767
    34    O    3  px     Val( 2p)     1.99156      -0.39322
    35    O    3  px     Ryd( 3p)     0.00124       0.84774
    36    O    3  px     Ryd( 4p)     0.00002       2.36345
    37    O    3  py     Val( 2p)     1.41667      -0.27543
    38    O    3  py     Ryd( 3p)     0.00292       0.91950
    39    O    3  py     Ryd( 4p)     0.00014       3.15816
    40    O    3  pz     Val( 2p)     1.67872      -0.30205
    41    O    3  pz     Ryd( 3p)     0.00195       0.84246
    42    O    3  pz     Ryd( 4p)     0.00023       3.20329
    43    O    3  dxy    Ryd( 3d)     0.00003       2.26403
    44    O    3  dxy    Ryd( 4d)     0.00001       6.50803
    45    O    3  dxz    Ryd( 3d)     0.00270       2.35477
    46    O    3  dxz    Ryd( 4d)     0.00002       6.53199
    47    O    3  dyz    Ryd( 3d)     0.00198       3.94752
    48    O    3  dyz    Ryd( 4d)     0.00018       6.93500
    49    O    3  dx2y2  Ryd( 3d)     0.00054       2.62471
    50    O    3  dx2y2  Ryd( 4d)     0.00000       6.61719
    51    O    3  dz2    Ryd( 3d)     0.00256       2.94694
    52    O    3  dz2    Ryd( 4d)     0.00004       6.69172
    53    O    3  f(0)   Ryd( 4f)     0.00004       6.01931
    54    O    3  f(C1)  Ryd( 4f)     0.00006       5.77541
    55    O    3  f(S1)  Ryd( 4f)     0.00002       6.39796
    56    O    3  f(C2)  Ryd( 4f)     0.00003       6.14182
    57    O    3  f(S2)  Ryd( 4f)     0.00004       5.89891
    58    O    3  f(C3)  Ryd( 4f)     0.00013       5.70283
    59    O    3  f(S3)  Ryd( 4f)     0.00006       5.72983

 WARNING:  Population inversion found on atom  H    2
           Population inversion found on atom  O    3


 Summary of Natural Population Analysis:                  
                                                          
                                       Natural Population 
                Natural  -----------------------------------------------
    Atom  No    Charge         Core      Valence    Rydberg      Total
 -----------------------------------------------------------------------
      H    1    0.43329      0.00000     0.56209    0.00462     0.56671
      H    2    0.38357      0.00000     0.60792    0.00851     0.61643
      O    3   -0.81686      1.99966     6.80089    0.01631     8.81686
 =======================================================================
   * Total *    0.00000      1.99966     7.97090    0.02944    10.00000

                                 Natural Population      
 --------------------------------------------------------
   Core                       1.99966 ( 99.9829% of   2)
   Valence                    7.97090 ( 99.6362% of   8)
   Natural Minimal Basis      9.97056 ( 99.7056% of  10)
   Natural Rydberg Basis      0.02944 (  0.2944% of  10)
 --------------------------------------------------------

    Atom  No          Natural Electron Configuration
 ----------------------------------------------------------------------------
      H    1            1S( 0.56)
      H    2            2S( 0.61)
      O    3      [core]2S( 1.71)2p( 5.09)3p( 0.01)3d( 0.01)


 NBO analysis skipped by request.
   1 Symmetry operations used in ECPInt.
 ECPInt:  NShTT=     276 NPrTT=     694 LenC2=     277 LenP2D=     682.
 LDataN:  DoStor=T MaxTD1= 7 Len=  274
 Calling FoFJK, ICntrl=  10002127 FMM=F ISym2X=0 I1Cent= 0 IOpClX= 0 NMat=1 NMatS=1 NMatT=0.
 -------------------------------------------------------------------
 Center     Atomic                   Forces (Hartrees/Bohr)
 Number     Number              X              Y              Z
 -------------------------------------------------------------------
      1        1           0.000000000   -0.099465805    0.059623738
      2        1           0.000000000   -0.311181400   -0.387794419
      3        8           0.000000000    0.410647205    0.328170681
 -------------------------------------------------------------------
 Cartesian Forces:  Max     0.410647205 RMS     0.244266233

 GradGradGradGradGradGradGradGradGradGradGradGradGradGradGradGradGradGrad
 Berny optimization.
 Search for a local minimum.
 Step number   1 out of a maximum of    2
 All quantities printed in internal units (Hartrees-Bohrs-Radians)
 Second derivative matrix not updated -- first step.
 The second derivative matrix:
                          X1        Y1        Z1        X2        Y2
           X1           1.00000
           Y1           0.00000   0.19023
           Z1           0.00000  -0.08849   0.07964
           X2           0.00000   0.00000   0.00000   1.00000
           Y2           0.00000  -0.01899  -0.03426   0.00000   0.60969
           Z2           0.00000   0.01484   0.02677   0.00000   0.67674
           X3           0.00000   0.00000   0.00000   0.00000   0.00000
           Y3           0.00000  -0.17124   0.12275   0.00000  -0.59070
           Z3           0.00000   0.07365  -0.10641   0.00000  -0.64248
                          Z2        X3        Y3        Z3
           Z2           0.94670
           X3           0.00000   1.00000
           Y3          -0.69158   0.00000   0.76194
           Z3          -0.97348   0.00000   0.56883   1.07988
 ITU=  0
     Eigenvalues ---    0.15058   0.43181   2.42939
 Quadratic step=4.487D-01 exceeds max=3.000D-01 adjusted using Lamda=-3.595D-01.
 Angle between NR and scaled steps=  14.88 degrees.
 Angle between quadratic step and forces=  36.33 degrees.
 Linear search not attempted -- first point.
 TrRot=  0.000000  0.064064  0.013499  0.000000  0.000000  0.000000
 Variable       Old X    -DE/DX   Delta X   Delta X   Delta X     New X
                                 (Linear)    (Quad)   (Total)
    X1        0.00000   0.00000   0.00000   0.00000   0.00000   0.00000
    Y1        1.43349  -0.09947   0.00000  -0.15535  -0.09128   1.34220
    Z1       -0.88704   0.05962   0.00000   0.09605   0.10955  -0.77750
    X2        0.00000   0.00000   0.00000   0.00000   0.00000   0.00000
    Y2       -1.43349  -0.31118   0.00000  -0.14196  -0.07790  -1.51138
    Z2       -0.88704  -0.38779   0.00000  -0.15869  -0.14520  -1.03224
    X3        0.00000   0.00000   0.00000   0.00000   0.00000   0.00000
    Y3       -0.56692   0.41065   0.00000   0.10511   0.16918  -0.39774
    Z3        0.22176   0.32817   0.00000   0.02215   0.03565   0.25741
         Item               Value     Threshold  Converged?
 Maximum Force            0.410647     0.000450     NO 
 RMS     Force            0.244266     0.000300     NO 
 Maximum Displacement     0.169178     0.001800     NO 
 RMS     Displacement     0.092721     0.001200     NO 
 Predicted change in Energy=-1.048821D-01
 GradGradGradGradGradGradGradGradGradGradGradGradGradGradGradGradGradGrad

 1\1\GINC-CCWSGE0586\Force\RB2PLYP-FC\def2TZVPP\H2O1\ALLOUCHE\16-May-20
 19\0\\# B2PLYP/def2tzvpp nosym scf(tight) force Pop=NPA\\xPert\\0,1\H,
 0.,0.758568,-0.469403\H,0.,-0.758568,-0.469403\O,0.,-0.3,0.117351\\Ver
 sion=EM64L-G09RevD.01\HF=-76.2144476\MP2=-76.2988543\RMSD=2.186e-09\RM
 SF=2.443e-01\Dipole=0.,0.2667497,-0.7727687\PG=CS [SG(H2O1)]\\@


 Time has a wonderful way of weeding out the trivial.
                                -- Richard Ben Sapir
 Job cpu time:       0 days  0 hours  0 minutes 15.8 seconds.
 File lengths (MBytes):  RWF=      5 Int=      0 D2E=      0 Chk=      1 Scr=      1
 Normal termination of Gaussian 09 at Thu May 16 09:05:26 2019.
