 Entering Gaussian System, Link 0=/pbs/throng/ilm/sl6/allouche/Gaussian09D/g09/g09
 Initial command:
 /pbs/throng/ilm/sl6/allouche/Gaussian09D/g09/l1.exe "/scratch/6332055.1.long/Gau-152568.inp" -scrdir="/scratch/6332055.1.long/"
 Entering Link 1 = /pbs/throng/ilm/sl6/allouche/Gaussian09D/g09/l1.exe PID=    152571.
  
 Copyright (c) 1988,1990,1992,1993,1995,1998,2003,2009,2013,
            Gaussian, Inc.  All Rights Reserved.
  
 This is part of the Gaussian(R) 09 program.  It is based on
 the Gaussian(R) 03 system (copyright 2003, Gaussian, Inc.),
 the Gaussian(R) 98 system (copyright 1998, Gaussian, Inc.),
 the Gaussian(R) 94 system (copyright 1995, Gaussian, Inc.),
 the Gaussian 92(TM) system (copyright 1992, Gaussian, Inc.),
 the Gaussian 90(TM) system (copyright 1990, Gaussian, Inc.),
 the Gaussian 88(TM) system (copyright 1988, Gaussian, Inc.),
 the Gaussian 86(TM) system (copyright 1986, Carnegie Mellon
 University), and the Gaussian 82(TM) system (copyright 1983,
 Carnegie Mellon University). Gaussian is a federally registered
 trademark of Gaussian, Inc.
  
 This software contains proprietary and confidential information,
 including trade secrets, belonging to Gaussian, Inc.
  
 This software is provided under written license and may be
 used, copied, transmitted, or stored only in accord with that
 written license.
  
 The following legend is applicable only to US Government
 contracts under FAR:
  
                    RESTRICTED RIGHTS LEGEND
  
 Use, reproduction and disclosure by the US Government is
 subject to restrictions as set forth in subparagraphs (a)
 and (c) of the Commercial Computer Software - Restricted
 Rights clause in FAR 52.227-19.
  
 Gaussian, Inc.
 340 Quinnipiac St., Bldg. 40, Wallingford CT 06492
  
  
 ---------------------------------------------------------------
 Warning -- This program may not be used in any manner that
 competes with the business of Gaussian, Inc. or will provide
 assistance to any competitor of Gaussian, Inc.  The licensee
 of this program is prohibited from giving any competitor of
 Gaussian, Inc. access to this program.  By using this program,
 the user acknowledges that Gaussian, Inc. is engaged in the
 business of creating and licensing software in the field of
 computational chemistry and represents and warrants to the
 licensee that it is not a competitor of Gaussian, Inc. and that
 it will not use this program in any manner prohibited above.
 ---------------------------------------------------------------
  

 Cite this work as:
 Gaussian 09, Revision D.01,
 M. J. Frisch, G. W. Trucks, H. B. Schlegel, G. E. Scuseria, 
 M. A. Robb, J. R. Cheeseman, G. Scalmani, V. Barone, B. Mennucci, 
 G. A. Petersson, H. Nakatsuji, M. Caricato, X. Li, H. P. Hratchian, 
 A. F. Izmaylov, J. Bloino, G. Zheng, J. L. Sonnenberg, M. Hada, 
 M. Ehara, K. Toyota, R. Fukuda, J. Hasegawa, M. Ishida, T. Nakajima, 
 Y. Honda, O. Kitao, H. Nakai, T. Vreven, J. A. Montgomery, Jr., 
 J. E. Peralta, F. Ogliaro, M. Bearpark, J. J. Heyd, E. Brothers, 
 K. N. Kudin, V. N. Staroverov, T. Keith, R. Kobayashi, J. Normand, 
 K. Raghavachari, A. Rendell, J. C. Burant, S. S. Iyengar, J. Tomasi, 
 M. Cossi, N. Rega, J. M. Millam, M. Klene, J. E. Knox, J. B. Cross, 
 V. Bakken, C. Adamo, J. Jaramillo, R. Gomperts, R. E. Stratmann, 
 O. Yazyev, A. J. Austin, R. Cammi, C. Pomelli, J. W. Ochterski, 
 R. L. Martin, K. Morokuma, V. G. Zakrzewski, G. A. Voth, 
 P. Salvador, J. J. Dannenberg, S. Dapprich, A. D. Daniels, 
 O. Farkas, J. B. Foresman, J. V. Ortiz, J. Cioslowski, 
 and D. J. Fox, Gaussian, Inc., Wallingford CT, 2013.
 
 ******************************************
 Gaussian 09:  EM64L-G09RevD.01 24-Apr-2013
                16-May-2019 
 ******************************************
 -------------------------------------------------
 # B2PLYP/def2tzvpp nosym scf(tight) force Pop=NPA
 -------------------------------------------------
 1/10=7,30=1,38=1/1,3;
 2/12=2,15=1,17=6,18=5,40=1/2;
 3/5=44,7=202,11=9,16=1,25=1,30=1,71=1,74=-47/1,2,3;
 4//1;
 5/5=2,32=2,38=5/2;
 8/6=4,10=1/1;
 9/15=2,16=-3/6;
 10/5=1,31=1/2;
 6/7=2,8=2,9=2,10=2,18=1,40=-1/1,7;
 7/12=2,29=1,30=1/1,2,3,16;
 1/10=7,30=1/3;
 99//99;
 -----
 xPert
 -----
 Symbolic Z-matrix:
 Charge =  0 Multiplicity = 1
 H                     0.        0.75857  -0.4694 
 H                     0.       -0.75857  -0.4694 
 O                     0.        0.        0.41735 
 

 GradGradGradGradGradGradGradGradGradGradGradGradGradGradGradGradGradGrad
 Berny optimization.
 Initialization pass.
 Trust Radius=3.00D-01 FncErr=1.00D-07 GrdErr=1.00D-07
 Number of steps in this run=      2 maximum allowed number of steps=      2.
 GradGradGradGradGradGradGradGradGradGradGradGradGradGradGradGradGradGrad

                          Input orientation:                          
 ---------------------------------------------------------------------
 Center     Atomic      Atomic             Coordinates (Angstroms)
 Number     Number       Type             X           Y           Z
 ---------------------------------------------------------------------
      1          1           0        0.000000    0.758568   -0.469403
      2          1           0        0.000000   -0.758568   -0.469403
      3          8           0        0.000000    0.000000    0.417351
 ---------------------------------------------------------------------
                    Distance matrix (angstroms):
                    1          2          3
     1  H    0.000000
     2  H    1.517136   0.000000
     3  O    1.166944   1.166944   0.000000
 Symmetry turned off by external request.
 Stoichiometry    H2O
 Framework group  C2V[C2(O),SGV(H2)]
 Deg. of freedom     2
 Full point group                 C2V     NOp   4
 Rotational constants (GHZ):    435.7255441    359.0386054    196.8411532
 Standard basis: def2TZVPP (5D, 7F)
    59 basis functions,    85 primitive gaussians,    66 cartesian basis functions
     5 alpha electrons        5 beta electrons
       nuclear repulsion energy         7.6043634125 Hartrees.
 NAtoms=    3 NActive=    3 NUniq=    3 SFac= 1.00D+00 NAtFMM=   60 NAOKFM=F Big=F
 Integral buffers will be    131072 words long.
 Regular integral format.
 Two-electron integral symmetry is turned off.
 One-electron integrals computed using PRISM.
   1 Symmetry operations used in ECPInt.
 ECPInt:  NShTT=     276 NPrTT=     694 LenC2=     277 LenP2D=     679.
 LDataN:  DoStor=T MaxTD1= 6 Len=  172
 NBasis=    59 RedAO= T EigKep=  5.91D-03  NBF=    59
 NBsUse=    59 1.00D-06 EigRej= -1.00D+00 NBFU=    59
 ExpMin= 1.03D-01 ExpMax= 2.70D+04 ExpMxC= 9.22D+02 IAcc=1 IRadAn=         1 AccDes= 0.00D+00
 Harris functional with IExCor=  419 and IRadAn=       1 diagonalized for initial guess.
 HarFok:  IExCor=  419 AccDes= 0.00D+00 IRadAn=         1 IDoV= 1 UseB2=F ITyADJ=14
 ICtDFT=  3500011 ScaDFX=  1.000000  1.000000  1.000000  1.000000
 FoFCou: FMM=F IPFlag=           0 FMFlag=      100000 FMFlg1=           0
         NFxFlg=           0 DoJE=T BraDBF=F KetDBF=T FulRan=T
         wScrn=  0.000000 ICntrl=     500 IOpCl=  0 I1Cent=   200000004 NGrid=           0
         NMat0=    1 NMatS0=      1 NMatT0=    0 NMatD0=    1 NMtDS0=    0 NMtDT0=    0
 Symmetry not used in FoFCou.
 Keep R1 ints in memory in canonical form, NReq=3557593.
 Requested convergence on RMS density matrix=1.00D-08 within 128 cycles.
 Requested convergence on MAX density matrix=1.00D-06.
 Requested convergence on             energy=1.00D-06.
 No special actions if energy rises.
 Integral accuracy reduced to 1.0D-05 until final iterations.
 Initial convergence to 1.0D-05 achieved.  Increase integral accuracy.
 SCF Done:  E(RB2PLYP) =  -76.2631115879     A.U. after   11 cycles
            NFock= 11  Conv=0.62D-08     -V/T= 2.0084
 DoSCS=T DFT=T ScalE2(SS,OS)=  0.270000  0.270000
 ExpMin= 1.03D-01 ExpMax= 2.70D+04 ExpMxC= 9.22D+02 IAcc=3 IRadAn=         5 AccDes= 0.00D+00
 HarFok:  IExCor=  205 AccDes= 0.00D+00 IRadAn=         5 IDoV=-2 UseB2=F ITyADJ=14
 ICtDFT= 12500011 ScaDFX=  1.000000  1.000000  1.000000  1.000000
 Range of M.O.s used for correlation:     2    59
 NBasis=    59 NAE=     5 NBE=     5 NFC=     1 NFV=     0
 NROrb=     58 NOA=     4 NOB=     4 NVA=    54 NVB=    54
 DoSCS=T DFT=T ScalE2(SS,OS)=  0.270000  0.270000
 Fully direct method using O(ONN) memory.
 JobTyp=1 Pass  1:  I=   2 to   5 NPSUse=  1 ParTrn=F ParDer=F DoDerP=T.
 Spin components of T(2) and E(2):
     alpha-alpha T2 =       0.1575745259D-01 E2=     -0.1128106231D-01
     alpha-beta  T2 =       0.9697368906D-01 E2=     -0.7020107829D-01
     beta-beta   T2 =       0.1575745259D-01 E2=     -0.1128106231D-01
 E2(B2PLYP) =    -0.9276320291D-01 E(B2PLYP) =    -0.76355874790812D+02
          IDoAtm=111
          Differentiating once with respect to electric field.
                with respect to dipole field.
          Differentiating once with respect to nuclear coordinates.
 Keep R1 ints in memory in canonical form, NReq=3533275.
          There are     1 degrees of freedom in the 1st order CPHF.  IDoFFX=0 NUNeed=     1.
 LinEq1:  Iter=  0 NonCon=     1 RMS=2.93D-03 Max=2.45D-02 NDo=     1
 AX will form     1 AO Fock derivatives at one time.
 LinEq1:  Iter=  1 NonCon=     1 RMS=4.68D-04 Max=4.34D-03 NDo=     1
 LinEq1:  Iter=  2 NonCon=     1 RMS=9.89D-05 Max=5.70D-04 NDo=     1
 LinEq1:  Iter=  3 NonCon=     1 RMS=2.63D-05 Max=2.52D-04 NDo=     1
 LinEq1:  Iter=  4 NonCon=     1 RMS=1.62D-05 Max=9.82D-05 NDo=     1
 LinEq1:  Iter=  5 NonCon=     1 RMS=1.17D-06 Max=6.78D-06 NDo=     1
 LinEq1:  Iter=  6 NonCon=     1 RMS=1.19D-07 Max=6.09D-07 NDo=     1
 LinEq1:  Iter=  7 NonCon=     1 RMS=1.24D-08 Max=1.17D-07 NDo=     1
 LinEq1:  Iter=  8 NonCon=     1 RMS=1.40D-09 Max=9.39D-09 NDo=     1
 LinEq1:  Iter=  9 NonCon=     1 RMS=1.04D-10 Max=8.07D-10 NDo=     1
 LinEq1:  Iter= 10 NonCon=     0 RMS=5.91D-12 Max=4.53D-11 NDo=     1
 Linear equations converged to 1.000D-10 1.000D-09 after    10 iterations.
 End of Minotr F.D. properties file   721 does not exist.
 End of Minotr F.D. properties file   722 does not exist.
 End of Minotr F.D. properties file   788 does not exist.

 **********************************************************************

            Population analysis using the SCF density.

 **********************************************************************

 Alpha  occ. eigenvalues --  -19.76487  -1.09052  -0.49452  -0.48722  -0.39072
 Alpha virt. eigenvalues --    0.02193   0.08970   0.34410   0.39681   0.47962
 Alpha virt. eigenvalues --    0.49151   0.58557   0.59581   0.66259   0.73102
 Alpha virt. eigenvalues --    0.76486   1.02198   1.19277   1.21436   1.76473
 Alpha virt. eigenvalues --    1.79638   1.83169   2.02252   2.14555   2.38259
 Alpha virt. eigenvalues --    2.53513   2.64538   2.81683   2.95251   3.03956
 Alpha virt. eigenvalues --    3.06931   3.16595   3.43303   3.48000   3.55883
 Alpha virt. eigenvalues --    3.62653   3.67934   3.73905   3.91419   3.91777
 Alpha virt. eigenvalues --    3.93878   4.03425   4.32305   4.74298   4.76968
 Alpha virt. eigenvalues --    5.01937   5.46835   5.79202   5.94687   6.04497
 Alpha virt. eigenvalues --    6.07339   6.64257   6.69428   6.76506   6.93697
 Alpha virt. eigenvalues --    7.03344   7.10063   7.54784  43.82863
          Condensed to atoms (all electrons):
               1          2          3
     1  H    0.519906  -0.011131   0.255821
     2  H   -0.011131   0.519906   0.255821
     3  O    0.255821   0.255821   7.959165
 Mulliken charges:
               1
     1  H    0.235403
     2  H    0.235403
     3  O   -0.470807
 Sum of Mulliken charges =   0.00000
 Mulliken charges with hydrogens summed into heavy atoms:
               1
     3  O    0.000000
 Electronic spatial extent (au):  <R**2>=             25.2924
 Charge=              0.0000 electrons
 Dipole moment (field-independent basis, Debye):
    X=              0.0000    Y=              0.0000    Z=             -2.4397  Tot=              2.4397
 Quadrupole moment (field-independent basis, Debye-Ang):
   XX=             -7.8650   YY=             -5.2213   ZZ=             -6.5954
   XY=              0.0000   XZ=              0.0000   YZ=              0.0000
 Traceless Quadrupole moment (field-independent basis, Debye-Ang):
   XX=             -1.3044   YY=              1.3393   ZZ=             -0.0349
   XY=              0.0000   XZ=              0.0000   YZ=              0.0000
 Octapole moment (field-independent basis, Debye-Ang**2):
  XXX=              0.0000  YYY=              0.0000  ZZZ=             -5.8849  XYY=              0.0000
  XXY=              0.0000  XXZ=             -2.0498  XZZ=              0.0000  YZZ=              0.0000
  YYZ=             -2.8497  XYZ=              0.0000
 Hexadecapole moment (field-independent basis, Debye-Ang**3):
 XXXX=             -6.7446 YYYY=             -8.7092 ZZZZ=            -12.6845 XXXY=              0.0000
 XXXZ=              0.0000 YYYX=              0.0000 YYYZ=              0.0000 ZZZX=              0.0000
 ZZZY=              0.0000 XXYY=             -2.8400 XXZZ=             -3.4227 YYZZ=             -3.1057
 XXYZ=              0.0000 YYXZ=              0.0000 ZZXY=              0.0000
 N-N= 7.604363412471D+00 E-N=-1.957474637828D+02  KE= 7.562941943733D+01
 ******************************Gaussian NBO Version 3.1******************************
             N A T U R A L   A T O M I C   O R B I T A L   A N D
          N A T U R A L   B O N D   O R B I T A L   A N A L Y S I S
 ******************************Gaussian NBO Version 3.1******************************
       /RESON  / : Allow strongly delocalized NBO set

 Analyzing the SCF density

 Job title: xPert                                                           

 Storage needed:     10799 in NPA ( 536870855 available)


 NATURAL POPULATIONS:  Natural atomic orbital occupancies 
                                                          
   NAO  Atom  No  lang   Type(AO)    Occupancy      Energy
 ----------------------------------------------------------
     1    H    1  S      Val( 1S)     0.55084      -0.01586
     2    H    1  S      Ryd( 2S)     0.00144       0.85330
     3    H    1  S      Ryd( 3S)     0.00002       1.83412
     4    H    1  px     Ryd( 2p)     0.00203       1.16409
     5    H    1  px     Ryd( 3p)     0.00001       3.56452
     6    H    1  py     Ryd( 2p)     0.00107       1.95799
     7    H    1  py     Ryd( 3p)     0.00014       3.89059
     8    H    1  pz     Ryd( 2p)     0.00123       1.95869
     9    H    1  pz     Ryd( 3p)     0.00049       3.86244
    10    H    1  dxy    Ryd( 3d)     0.00005       3.55985
    11    H    1  dxz    Ryd( 3d)     0.00001       3.63830
    12    H    1  dyz    Ryd( 3d)     0.00003       3.99313
    13    H    1  dx2y2  Ryd( 3d)     0.00010       3.76176
    14    H    1  dz2    Ryd( 3d)     0.00002       3.85862

    15    H    2  S      Val( 1S)     0.55084      -0.01586
    16    H    2  S      Ryd( 2S)     0.00144       0.85330
    17    H    2  S      Ryd( 3S)     0.00002       1.83412
    18    H    2  px     Ryd( 2p)     0.00203       1.16409
    19    H    2  px     Ryd( 3p)     0.00001       3.56452
    20    H    2  py     Ryd( 2p)     0.00107       1.95799
    21    H    2  py     Ryd( 3p)     0.00014       3.89059
    22    H    2  pz     Ryd( 2p)     0.00123       1.95869
    23    H    2  pz     Ryd( 3p)     0.00049       3.86244
    24    H    2  dxy    Ryd( 3d)     0.00005       3.55985
    25    H    2  dxz    Ryd( 3d)     0.00001       3.63830
    26    H    2  dyz    Ryd( 3d)     0.00003       3.99313
    27    H    2  dx2y2  Ryd( 3d)     0.00010       3.76176
    28    H    2  dz2    Ryd( 3d)     0.00002       3.85862

    29    O    3  S      Cor( 1S)     1.99995     -19.61461
    30    O    3  S      Val( 2S)     1.87388      -1.09113
    31    O    3  S      Ryd( 3S)     0.00106       1.36580
    32    O    3  S      Ryd( 4S)     0.00000       3.52298
    33    O    3  S      Ryd( 5S)     0.00000      42.87400
    34    O    3  px     Val( 2p)     1.99372      -0.38650
    35    O    3  px     Ryd( 3p)     0.00013       0.57984
    36    O    3  px     Ryd( 4p)     0.00000       2.70120
    37    O    3  py     Val( 2p)     1.50495      -0.31508
    38    O    3  py     Ryd( 3p)     0.00036       0.60556
    39    O    3  py     Ryd( 4p)     0.00000       3.12532
    40    O    3  pz     Val( 2p)     1.50332      -0.32204
    41    O    3  pz     Ryd( 3p)     0.00004       0.59470
    42    O    3  pz     Ryd( 4p)     0.00024       3.22370
    43    O    3  dxy    Ryd( 3d)     0.00000       1.91897
    44    O    3  dxy    Ryd( 4d)     0.00000       6.48723
    45    O    3  dxz    Ryd( 3d)     0.00182       2.02056
    46    O    3  dxz    Ryd( 4d)     0.00002       6.54817
    47    O    3  dyz    Ryd( 3d)     0.00234       2.72856
    48    O    3  dyz    Ryd( 4d)     0.00005       6.89172
    49    O    3  dx2y2  Ryd( 3d)     0.00039       2.03717
    50    O    3  dx2y2  Ryd( 4d)     0.00001       6.55522
    51    O    3  dz2    Ryd( 3d)     0.00253       2.28995
    52    O    3  dz2    Ryd( 4d)     0.00001       6.69126
    53    O    3  f(0)   Ryd( 4f)     0.00004       5.71380
    54    O    3  f(C1)  Ryd( 4f)     0.00006       5.52582
    55    O    3  f(S1)  Ryd( 4f)     0.00001       6.03089
    56    O    3  f(C2)  Ryd( 4f)     0.00006       5.82166
    57    O    3  f(S2)  Ryd( 4f)     0.00000       5.73242
    58    O    3  f(C3)  Ryd( 4f)     0.00005       5.47556
    59    O    3  f(S3)  Ryd( 4f)     0.00003       5.48893

 WARNING:  Population inversion found on atom  O    3


 Summary of Natural Population Analysis:                  
                                                          
                                       Natural Population 
                Natural  -----------------------------------------------
    Atom  No    Charge         Core      Valence    Rydberg      Total
 -----------------------------------------------------------------------
      H    1    0.44252      0.00000     0.55084    0.00664     0.55748
      H    2    0.44252      0.00000     0.55084    0.00664     0.55748
      O    3   -0.88504      1.99995     6.87587    0.00923     8.88504
 =======================================================================
   * Total *    0.00000      1.99995     7.97755    0.02250    10.00000

                                 Natural Population      
 --------------------------------------------------------
   Core                       1.99995 ( 99.9973% of   2)
   Valence                    7.97755 ( 99.7194% of   8)
   Natural Minimal Basis      9.97750 ( 99.7750% of  10)
   Natural Rydberg Basis      0.02250 (  0.2250% of  10)
 --------------------------------------------------------

    Atom  No          Natural Electron Configuration
 ----------------------------------------------------------------------------
      H    1            1S( 0.55)
      H    2            1S( 0.55)
      O    3      [core]2S( 1.87)2p( 5.00)3d( 0.01)


 NBO analysis skipped by request.
   1 Symmetry operations used in ECPInt.
 ECPInt:  NShTT=     276 NPrTT=     694 LenC2=     277 LenP2D=     679.
 LDataN:  DoStor=T MaxTD1= 7 Len=  274
 Calling FoFJK, ICntrl=  10002127 FMM=F ISym2X=0 I1Cent= 0 IOpClX= 0 NMat=1 NMatS=1 NMatT=0.
 -------------------------------------------------------------------
 Center     Atomic                   Forces (Hartrees/Bohr)
 Number     Number              X              Y              Z
 -------------------------------------------------------------------
      1        1           0.000000000   -0.047766613    0.085745147
      2        1           0.000000000    0.047766613    0.085745147
      3        8           0.000000000    0.000000000   -0.171490293
 -------------------------------------------------------------------
 Cartesian Forces:  Max     0.171490293 RMS     0.073542641

 GradGradGradGradGradGradGradGradGradGradGradGradGradGradGradGradGradGrad
 Berny optimization.
 Search for a local minimum.
 Step number   1 out of a maximum of    2
 All quantities printed in internal units (Hartrees-Bohrs-Radians)
 Second derivative matrix not updated -- first step.
 The second derivative matrix:
                          X1        Y1        Z1        X2        Y2
           X1           1.00000
           Y1           0.00000   0.13412
           Z1           0.00000  -0.11833   0.17122
           X2           0.00000   0.00000   0.00000   1.00000
           Y2           0.00000  -0.01900  -0.01625   0.00000   0.13412
           Z2           0.00000   0.01625   0.01390   0.00000   0.11833
           X3           0.00000   0.00000   0.00000   0.00000   0.00000
           Y3           0.00000  -0.11512   0.13458   0.00000  -0.11512
           Z3           0.00000   0.10207  -0.18513   0.00000  -0.10207
                          Z2        X3        Y3        Z3
           Z2           0.17122
           X3           0.00000   1.00000
           Y3          -0.13458   0.00000   0.23025
           Z3          -0.18513   0.00000   0.00000   0.37025
 ITU=  0
     Eigenvalues ---    0.08337   0.41567   0.50135
 Quadratic step=4.265D-01 exceeds max=3.000D-01 adjusted using Lamda=-1.655D-01.
 Angle between NR and scaled steps=  12.37 degrees.
 Angle between quadratic step and forces=  27.48 degrees.
 Linear search not attempted -- first point.
 TrRot=  0.000000  0.000000 -0.079592  0.000000  0.000000  0.000000
 Variable       Old X    -DE/DX   Delta X   Delta X   Delta X     New X
                                 (Linear)    (Quad)   (Total)
    X1        0.00000   0.00000   0.00000   0.00000   0.00000   0.00000
    Y1        1.43349  -0.04777   0.00000  -0.04891  -0.04891   1.38458
    Z1       -0.88704   0.08575   0.00000   0.18468   0.10509  -0.78195
    X2        0.00000   0.00000   0.00000   0.00000   0.00000   0.00000
    Y2       -1.43349   0.04777   0.00000   0.04891   0.04891  -1.38458
    Z2       -0.88704   0.08575   0.00000   0.18468   0.10509  -0.78195
    X3        0.00000   0.00000   0.00000   0.00000   0.00000   0.00000
    Y3        0.00000   0.00000   0.00000   0.00000   0.00000   0.00000
    Z3        0.78868  -0.17149   0.00000  -0.13059  -0.21018   0.57850
         Item               Value     Threshold  Converged?
 Maximum Force            0.171490     0.000450     NO 
 RMS     Force            0.073543     0.000300     NO 
 Maximum Displacement     0.210183     0.001800     NO 
 RMS     Displacement     0.088850     0.001200     NO 
 Predicted change in Energy=-3.682347D-02
 GradGradGradGradGradGradGradGradGradGradGradGradGradGradGradGradGradGrad

 1\1\GINC-CCWSGE0313\Force\RB2PLYP-FC\def2TZVPP\H2O1\ALLOUCHE\16-May-20
 19\0\\# B2PLYP/def2tzvpp nosym scf(tight) force Pop=NPA\\xPert\\0,1\H,
 0.,0.758568,-0.469403\H,0.,-0.758568,-0.469403\O,0.,0.,0.417351\\Versi
 on=EM64L-G09RevD.01\HF=-76.2631116\MP2=-76.3558748\RMSD=6.153e-09\RMSF
 =7.354e-02\Dipole=0.,0.,-0.9144529\PG=C02V [C2(O1),SGV(H2)]\\@


 IF YOU GIVE A BOY AND A PIG EVERYTHING THEY WANT,
 YOU'LL GET A BAD BOY AND A GOOD PIG.
 Job cpu time:       0 days  0 hours  0 minutes 17.2 seconds.
 File lengths (MBytes):  RWF=      5 Int=      0 D2E=      0 Chk=      1 Scr=      1
 Normal termination of Gaussian 09 at Thu May 16 09:06:00 2019.
