begin
comment by xLogML : From a0.log file, All value are in AU
atom 0.000000000000 1.433486338220 -0.887043465608 H 0.456920000000 0.000000000000 0.000000000000 0.000001741000 0.000006944000
atom 0.000000000000 -1.433486338220 -0.887043465608 H 0.456920000000 0.000000000000 0.000000000000 -0.000001741000 0.000006944000
atom 0.000000000000 0.000000000000 0.221761338834 O -0.913840000000 0.000000000000 0.000000000000 0.000000000000 -0.000013888000
energy  -76.41329261811300
charge  0.00000000000000
dipole 0.00000000000000 0.00000000000000 -0.78536559151880
end
begin
comment by xLogML : From amx1.log file, All value are in AU
atom -0.566918063332 1.433486338220 -0.887043465608 H 0.459170000000 0.000000000000 0.011889557000 -0.030409389000 0.022977299000
atom 0.000000000000 -1.433486338220 -0.887043465608 H 0.457030000000 0.000000000000 -0.000140513000 -0.000454749000 -0.000894716000
atom 0.000000000000 0.000000000000 0.221761338834 O -0.916210000000 0.000000000000 -0.011749044000 0.030864138000 -0.022082584000
energy  -76.41147558864900
charge  0.00000000000000
dipole -0.19498406329863 -0.01062261846058 -0.77100538508135
end
begin
comment by xLogML : From amx2.log file, All value are in AU
atom 0.000000000000 1.433486338220 -0.887043465608 H 0.457030000000 0.000000000000 -0.000140513000 0.000454749000 -0.000894716000
atom -0.566918063332 -1.433486338220 -0.887043465608 H 0.459170000000 0.000000000000 0.011889557000 0.030409389000 0.022977299000
atom 0.000000000000 0.000000000000 0.221761338834 O -0.916210000000 0.000000000000 -0.011749044000 -0.030864138000 -0.022082584000
energy  -76.41147558864900
charge  0.00000000000000
dipole -0.19498406329863 0.01062261846058 -0.77100538508135
end
begin
comment by xLogML : From amx3.log file, All value are in AU
atom 0.000000000000 1.433486338220 -0.887043465608 H 0.454650000000 0.000000000000 -0.013246305000 -0.022749577000 0.025905531000
atom 0.000000000000 -1.433486338220 -0.887043465608 H 0.454650000000 0.000000000000 -0.013246305000 0.022749577000 0.025905531000
atom -0.566918063332 0.000000000000 0.221761338834 O -0.909310000000 0.000000000000 0.026492611000 0.000000000000 -0.051811062000
energy  -76.40921628379900
charge  0.00000000000000
dipole 0.38001433966938 0.00000000000000 -0.74318986192717
end
begin
comment by xLogML : From amy1.log file, All value are in AU
atom 0.000000000000 0.866568274887 -0.887043465608 H 0.394080000000 0.000000000000 0.000000000000 0.342472909000 -0.367007479000
atom 0.000000000000 -1.433486338220 -0.887043465608 H 0.437900000000 0.000000000000 0.000000000000 -0.029186564000 0.020462342000
atom 0.000000000000 0.000000000000 0.221761338834 O -0.831970000000 0.000000000000 0.000000000000 -0.313286345000 0.346545137000
energy  -76.32758142901299
charge  0.00000000000000
dipole 0.00000000000000 -0.14702490810068 -0.81923994149864
end
begin
comment by xLogML : From amy2.log file, All value are in AU
atom 0.000000000000 1.433486338220 -0.887043465608 H 0.465860000000 0.000000000000 0.000000000000 -0.010691635000 -0.015119913000
atom 0.000000000000 -2.000404401552 -0.887043465608 H 0.470530000000 0.000000000000 0.000000000000 0.111409780000 0.044992707000
atom 0.000000000000 0.000000000000 0.221761338834 O -0.936380000000 0.000000000000 0.000000000000 -0.100718145000 -0.029872794000
energy  -76.37344624312500
charge  0.00000000000000
dipole 0.00000000000000 -0.14006119155430 -0.74747825234273
end
begin
comment by xLogML : From amy3.log file, All value are in AU
atom 0.000000000000 1.433486338220 -0.887043465608 H 0.433290000000 0.000000000000 0.000000000000 -0.099465805000 0.059623738000
atom 0.000000000000 -1.433486338220 -0.887043465608 H 0.383570000000 0.000000000000 0.000000000000 -0.311181400000 -0.387794419000
atom 0.000000000000 -0.566918063332 0.221761338834 O -0.816860000000 0.000000000000 0.000000000000 0.410647205000 0.328170681000
energy  -76.29885434030500
charge  0.00000000000000
dipole 0.00000000000000 0.27886340610586 -0.78918186555834
end
begin
comment by xLogML : From amz1.log file, All value are in AU
atom 0.000000000000 1.433486338220 -1.453961528940 H 0.442430000000 0.000000000000 0.000000000000 -0.059824082000 0.084508730000
atom 0.000000000000 -1.433486338220 -0.887043465608 H 0.450170000000 0.000000000000 0.000000000000 -0.012962508000 0.004547382000
atom 0.000000000000 0.000000000000 0.221761338834 O -0.892600000000 0.000000000000 0.000000000000 0.072786590000 -0.089056113000
energy  -76.38542347559100
charge  0.00000000000000
dipole 0.00000000000000 -0.05909323306589 -0.87569719146505
end
begin
comment by xLogML : From amz2.log file, All value are in AU
atom 0.000000000000 1.433486338220 -0.887043465608 H 0.450170000000 0.000000000000 0.000000000000 0.012962508000 0.004547382000
atom 0.000000000000 -1.433486338220 -1.453961528940 H 0.442430000000 0.000000000000 0.000000000000 0.059824082000 0.084508730000
atom 0.000000000000 0.000000000000 0.221761338834 O -0.892600000000 0.000000000000 0.000000000000 -0.072786590000 -0.089056113000
energy  -76.38542347559100
charge  0.00000000000000
dipole 0.00000000000000 0.05909323306589 -0.87569719146505
end
begin
comment by xLogML : From amz3.log file, All value are in AU
atom 0.000000000000 1.433486338220 -0.887043465608 H 0.460580000000 0.000000000000 0.000000000000 0.214680538000 -0.112725443000
atom 0.000000000000 -1.433486338220 -0.887043465608 H 0.460580000000 0.000000000000 0.000000000000 -0.214680538000 -0.112725443000
atom 0.000000000000 0.000000000000 -0.345156724499 O -0.921160000000 0.000000000000 0.000000000000 0.000000000000 0.225450887000
energy  -76.34067051399100
charge  0.00000000000000
dipole 0.00000000000000 0.00000000000000 -0.49650905545372
end
begin
comment by xLogML : From apx1.log file, All value are in AU
atom 0.566918063332 1.433486338220 -0.887043465608 H 0.459170000000 0.000000000000 -0.011889557000 -0.030409389000 0.022977299000
atom 0.000000000000 -1.433486338220 -0.887043465608 H 0.457030000000 0.000000000000 0.000140513000 -0.000454749000 -0.000894716000
atom 0.000000000000 0.000000000000 0.221761338834 O -0.916210000000 0.000000000000 0.011749044000 0.030864138000 -0.022082584000
energy  -76.41147558864900
charge  0.00000000000000
dipole 0.19498406329863 -0.01062261846058 -0.77100538508135
end
begin
comment by xLogML : From apx2.log file, All value are in AU
atom 0.000000000000 1.433486338220 -0.887043465608 H 0.457030000000 0.000000000000 0.000140513000 0.000454749000 -0.000894716000
atom 0.566918063332 -1.433486338220 -0.887043465608 H 0.459170000000 0.000000000000 -0.011889557000 0.030409389000 0.022977299000
atom 0.000000000000 0.000000000000 0.221761338834 O -0.916210000000 0.000000000000 0.011749044000 -0.030864138000 -0.022082584000
energy  -76.41147558864900
charge  0.00000000000000
dipole 0.19498406329863 0.01062261846058 -0.77100538508135
end
begin
comment by xLogML : From apx3.log file, All value are in AU
atom 0.000000000000 1.433486338220 -0.887043465608 H 0.454650000000 0.000000000000 0.013246305000 -0.022749577000 0.025905531000
atom 0.000000000000 -1.433486338220 -0.887043465608 H 0.454650000000 0.000000000000 0.013246305000 0.022749577000 0.025905531000
atom 0.566918063332 0.000000000000 0.221761338834 O -0.909310000000 0.000000000000 -0.026492611000 0.000000000000 -0.051811062000
energy  -76.40921628379900
charge  0.00000000000000
dipole -0.38001433966938 0.00000000000000 -0.74318986192717
end
begin
comment by xLogML : From apy1.log file, All value are in AU
atom 0.000000000000 2.000404401552 -0.887043465608 H 0.470530000000 0.000000000000 0.000000000000 -0.111409780000 0.044992707000
atom 0.000000000000 -1.433486338220 -0.887043465608 H 0.465860000000 0.000000000000 0.000000000000 0.010691635000 -0.015119913000
atom 0.000000000000 0.000000000000 0.221761338834 O -0.936380000000 0.000000000000 0.000000000000 0.100718145000 -0.029872794000
energy  -76.37344624312500
charge  0.00000000000000
dipole 0.00000000000000 0.14006119155430 -0.74747825234273
end
begin
comment by xLogML : From apy2.log file, All value are in AU
atom 0.000000000000 1.433486338220 -0.887043465608 H 0.437900000000 0.000000000000 0.000000000000 0.029186564000 0.020462342000
atom 0.000000000000 -0.866568274887 -0.887043465608 H 0.394080000000 0.000000000000 0.000000000000 -0.342472909000 -0.367007479000
atom 0.000000000000 0.000000000000 0.221761338834 O -0.831970000000 0.000000000000 0.000000000000 0.313286345000 0.346545137000
energy  -76.32758142901299
charge  0.00000000000000
dipole 0.00000000000000 0.14702490810068 -0.81923994149864
end
begin
comment by xLogML : From apy3.log file, All value are in AU
atom 0.000000000000 1.433486338220 -0.887043465608 H 0.383570000000 0.000000000000 0.000000000000 0.311181400000 -0.387794419000
atom 0.000000000000 -1.433486338220 -0.887043465608 H 0.433290000000 0.000000000000 0.000000000000 0.099465805000 0.059623738000
atom 0.000000000000 0.566918063332 0.221761338834 O -0.816860000000 0.000000000000 0.000000000000 -0.410647205000 0.328170681000
energy  -76.29885434030500
charge  0.00000000000000
dipole 0.00000000000000 -0.27886340610586 -0.78918186555834
end
begin
comment by xLogML : From apz1.log file, All value are in AU
atom 0.000000000000 1.433486338220 -0.320125402276 H 0.440380000000 0.000000000000 0.000000000000 0.229135956000 -0.109367564000
atom 0.000000000000 -1.433486338220 -0.887043465608 H 0.475580000000 0.000000000000 0.000000000000 0.020645637000 -0.006775916000
atom 0.000000000000 0.000000000000 0.221761338834 O -0.915960000000 0.000000000000 0.000000000000 -0.249781592000 0.116143480000
energy  -76.37870496533600
charge  0.00000000000000
dipole 0.00000000000000 0.02407793517731 -0.66060883915400
end
begin
comment by xLogML : From apz2.log file, All value are in AU
atom 0.000000000000 1.433486338220 -0.887043465608 H 0.475580000000 0.000000000000 0.000000000000 -0.020645637000 -0.006775916000
atom 0.000000000000 -1.433486338220 -0.320125402276 H 0.440380000000 0.000000000000 0.000000000000 -0.229135956000 -0.109367564000
atom 0.000000000000 0.000000000000 0.221761338834 O -0.915960000000 0.000000000000 0.000000000000 0.249781592000 0.116143480000
energy  -76.37870496533600
charge  0.00000000000000
dipole 0.00000000000000 -0.02407793517731 -0.66060883915400
end
begin
comment by xLogML : From apz3.log file, All value are in AU
atom 0.000000000000 1.433486338220 -0.887043465608 H 0.442520000000 0.000000000000 0.000000000000 -0.047766613000 0.085745147000
atom 0.000000000000 -1.433486338220 -0.887043465608 H 0.442520000000 0.000000000000 0.000000000000 0.047766613000 0.085745147000
atom 0.000000000000 0.000000000000 0.788679402166 O -0.885040000000 0.000000000000 0.000000000000 0.000000000000 -0.171490293000
energy  -76.35587479081200
charge  0.00000000000000
dipole 0.00000000000000 0.00000000000000 -0.95985193549164
end
