begin
comment written by RuNNerDecom
lattice   2.4623508000000001E+01   0.0000000000000000E+00   0.0000000000000000E+00
lattice   0.0000000000000000E+00   2.4623508000000001E+01   0.0000000000000000E+00
lattice   0.0000000000000000E+00   0.0000000000000000E+00   2.4623508000000001E+01
atom   3.7352908379999996E+00   2.3278411569999995E+00   3.5013048559999995E+00  %24.16E %24.16E %24.16E  -2.2638936000000001E-01   0.0000000000000000E+00  -6.5301370000000001E-03  -2.8524589999999999E-03  -2.7992553999999999E-02atom   5.2465243199999989E+00   3.3930613009999990E+00   3.6273685359999996E+00  %24.16E %24.16E %24.16E   1.2079342999999999E-01   0.0000000000000000E+00   4.5174880000000001E-03  -5.1726200000000000E-04   5.0525730000000003E-03atom   3.5586769639999996E+00   2.0389397119999995E+00   1.6281584419999995E+00  %24.16E %24.16E %24.16E   1.2722538000000000E-01   0.0000000000000000E+00   9.5815000000000003E-05   2.2112640000000001E-03   2.3427575999999999E-02atom   4.6522619089999990E+00   2.1146799652999995E+01   1.6174455805999997E+01  %24.16E %24.16E %24.16E  -2.4035018999999999E-01   0.0000000000000000E+00  -2.3104600000000000E-04  -7.1509140000000004E-03   2.6944723000000000E-02atom   4.1970456010000001E+00   2.2522898764999997E+01   1.5074691454999998E+01  %24.16E %24.16E %24.16E   1.3251887000000001E-01   0.0000000000000000E+00  -1.5352230000000001E-03   2.7905320000000001E-03  -1.8391035000000000E-02atom   5.0120470089999989E+00   1.9588530870000000E+01   1.5274057639999997E+01  %24.16E %24.16E %24.16E   1.3573370000000001E-01   0.0000000000000000E+00   2.7889379999999999E-03   6.2723700000000002E-03  -6.1710350000000001E-03atom   1.6857157435000001E+01   3.3272232159999993E+00   5.0174516279999999E+00  %24.16E %24.16E %24.16E  -2.1401032000000000E-01   0.0000000000000000E+00   1.0171588000000001E-02   1.6012737999999999E-02   3.5099118999999998E-02atom   1.6307700447999999E+01   2.3302789049999997E+00   3.6362880469999994E+00  %24.16E %24.16E %24.16E   1.0855953000000000E-01   0.0000000000000000E+00  -8.3011620000000008E-03  -2.4899500000000001E-02  -3.0394951000000000E-02atom   1.7367119129999995E+01   2.0713674250000000E+00   6.3321346170000004E+00  %24.16E %24.16E %24.16E   1.2138490000000000E-01   0.0000000000000000E+00  -6.6977610000000000E-03   7.0818920000000002E-03  -3.2194910000000001E-03atom   1.8117794235000002E+01   2.4248803506000002E+01   1.9251970512999996E+01  %24.16E %24.16E %24.16E  -2.5364225000000001E-01   0.0000000000000000E+00  -2.4405004000000001E-02  -1.2754375000000000E-02   1.2242947000000001E-02atom   1.6521636427999997E+01   3.3761104499999994E-01   1.9927736843999998E+01  %24.16E %24.16E %24.16E   1.2080920000000001E-01   0.0000000000000000E+00   2.2207410000000000E-03  -1.1811043000000000E-02  -9.6700329999999998E-03atom   1.9148602451999999E+01   1.0884316589999998E+00   1.9427148194000001E+01  %24.16E %24.16E %24.16E   1.1415569000000000E-01   0.0000000000000000E+00   2.1230736000000000E-02   2.2132545000000000E-02  -6.0071409999999997E-03atom   1.7757139860999995E+01   5.0971602999999990E-02   9.1303476909999990E+00  %24.16E %24.16E %24.16E  -2.1531763000000001E-01   0.0000000000000000E+00  -5.4349430000000002E-03  -1.8279010000000000E-03   5.4657289999999999E-03atom   1.6259474617999999E+01   2.3846841415999997E+01   9.8482171369999989E+00  %24.16E %24.16E %24.16E   1.3374116999999999E-01   0.0000000000000000E+00  -1.7113910000000000E-03   1.0244935000000000E-02  -2.7744440000000000E-03atom   1.8540979671999995E+01   2.3231546344999998E+01   8.3477550989999987E+00  %24.16E %24.16E %24.16E   1.4615057000000001E-01   0.0000000000000000E+00   1.4635403999999999E-02  -6.6706689999999997E-03  -4.5278879999999999E-03atom   1.2013315015999998E+01   3.7803608239999993E+00   2.4552206715000001E+01  %24.16E %24.16E %24.16E  -2.5368905000000003E-01   0.0000000000000000E+00   5.3596280000000000E-03   2.4749295000000001E-02  -5.3322220000000002E-03atom   1.3294852194999999E+01   5.2030228069999991E+00   2.4494564376000003E+01  %24.16E %24.16E %24.16E   1.1407803000000000E-01   0.0000000000000000E+00  -1.2906773999999999E-02  -2.6389114000000002E-02  -1.3262689999999999E-03atom   1.2919722512999998E+01   2.2597542979999994E+00   4.2451769399999995E-01  %24.16E %24.16E %24.16E   1.1654059999999999E-01   0.0000000000000000E+00   6.7434130000000002E-03   3.8799130000000000E-03  -4.6881300000000000E-04atom   1.2529890754999997E+01   5.2123769549999990E+00   1.5827331875999997E+01  %24.16E %24.16E %24.16E  -2.5398635000000003E-01   0.0000000000000000E+00  -1.1972100000000000E-04   8.2663300000000006E-03   6.5302509999999999E-03atom   1.2425917981999998E+01   4.3062907120000000E+00   1.4234424398999998E+01  %24.16E %24.16E %24.16E   1.1263432000000000E-01   0.0000000000000000E+00   1.4060300000000000E-04  -1.1164835999999999E-02  -1.3751890000000000E-03atom   1.2764916086999998E+01   3.8769258679999994E+00   1.7158077542999997E+01  %24.16E %24.16E %24.16E   1.0075323999999999E-01   0.0000000000000000E+00  -2.3000199999999998E-03  -2.3165100000000001E-04  -7.8261740000000000E-03atom   2.0033183603999998E+01   1.6544426533999996E+01   2.3913170828999995E+01  %24.16E %24.16E %24.16E  -2.6062087000000000E-01   0.0000000000000000E+00   6.5246979999999998E-03  -2.8540500999999999E-02  -5.2644260000000000E-03atom   2.1355047554999995E+01   1.5177379212999996E+01   2.3397275391999997E+01  %24.16E %24.16E %24.16E   1.1192816999999999E-01   0.0000000000000000E+00  -3.1707302000000000E-02   2.6134827999999999E-02   7.1437860000000001E-03atom   1.8354350245999996E+01   1.5846210246999998E+01   2.3385937030999997E+01  %24.16E %24.16E %24.16E   1.2327726000000000E-01   0.0000000000000000E+00   1.9731649000000000E-02   5.9553250000000000E-03   4.5499340000000003E-03atom   1.2144518752999998E+01   1.8052825424999998E+01   1.8706274081999997E+01  %24.16E %24.16E %24.16E  -2.1034116999999999E-01   0.0000000000000000E+00  -1.4866699000000001E-02  -1.1665448000000000E-02   2.6560720999999999E-02atom   1.3507181906999996E+01   1.8024574007999998E+01   1.7526007365999998E+01  %24.16E %24.16E %24.16E   1.2439557000000000E-01   0.0000000000000000E+00   2.0090667000000000E-02   1.4768810000000000E-03  -8.3124010000000005E-03atom   1.2731845865999999E+01   1.6994559475999996E+01   2.0149212833999997E+01  %24.16E %24.16E %24.16E   1.4489108000000001E-01   0.0000000000000000E+00  -3.1994440000000001E-03   6.1435109999999999E-03  -1.6646283000000001E-02atom   1.6912564227000001E+01   1.9121579358000002E+01   1.6214744782999997E+01  %24.16E %24.16E %24.16E  -2.1406269999999999E-01   0.0000000000000000E+00  -2.5386300000000001E-03   2.6152341999999999E-02   5.3460979999999996E-03atom   1.7405216023999998E+01   2.0866931101999995E+01   1.6692259867999997E+01  %24.16E %24.16E %24.16E   1.4803442000000000E-01   0.0000000000000000E+00  -1.3977441000000000E-02  -5.7137380000000003E-03  -2.5953610000000000E-03atom   1.8524312280999997E+01   1.8360227295999998E+01   1.6480704943999999E+01  %24.16E %24.16E %24.16E   1.3123731000000000E-01   0.0000000000000000E+00   2.0632529000000000E-02  -2.2303425000000002E-02   4.7924100000000004E-03atom   2.0116898504999998E+01   4.9227574139999994E+00   1.9585318333999997E+01  %24.16E %24.16E %24.16E  -2.4118801000000001E-01   0.0000000000000000E+00   1.0471940000000000E-03  -8.1895720000000009E-03   9.2756139999999997E-03atom   1.8468829899999996E+01   5.7293495369999992E+00   1.9695867356000001E+01  %24.16E %24.16E %24.16E   1.4175149000000001E-01   0.0000000000000000E+00   4.3257100000000000E-03   2.2461099999999999E-04   5.0733549999999999E-03atom   2.0829892455999996E+01   4.8646294149999987E+00   2.1353157827999997E+01  %24.16E %24.16E %24.16E   1.1075765000000000E-01   0.0000000000000000E+00  -4.1994040000000003E-03   9.1728729999999998E-03  -1.6789747000000001E-02atom   1.2029245412999998E+01   1.5603096883999998E+01   8.9021820680000001E+00  %24.16E %24.16E %24.16E  -2.6693820000000001E-01   0.0000000000000000E+00   5.4595746000000001E-02  -6.8766859999999999E-03   1.8733486000000001E-02atom   1.0441270122999999E+01   1.6269792526999996E+01   8.4546569479999985E+00  %24.16E %24.16E %24.16E   9.8486210000000005E-02   0.0000000000000000E+00  -3.3110457000000003E-02   1.9565415999999999E-02   2.6573650000000001E-03atom   1.3112417962000000E+01   1.6912299664999995E+01   9.8515052619999999E+00  %24.16E %24.16E %24.16E   1.0714985000000000E-01   0.0000000000000000E+00  -1.9172455000000001E-02  -1.9589209999999999E-02  -1.9407954000000002E-02atom   9.7625180230000002E+00   8.9721775509999979E+00   1.2034574442999999E+01  %24.16E %24.16E %24.16E  -2.7754008000000002E-01   0.0000000000000000E+00  -3.2051139999999998E-03  -1.2410450000000000E-02   1.7574029000000001E-02atom   8.1968415100000005E+00   9.8667553579999989E+00   1.2482137356999997E+01  %24.16E %24.16E %24.16E   1.0374073000000000E-01   0.0000000000000000E+00  -6.3599499999999998E-04   1.8212500000000000E-04  -3.0146489999999999E-03atom   9.7488552980000005E+00   7.5596067099999988E+00   1.3275898233999998E+01  %24.16E %24.16E %24.16E   1.1950742000000000E-01   0.0000000000000000E+00   2.1127939999999999E-03   1.6284777000000000E-02  -1.3554342000000000E-02atom   1.1224958756999998E+01   2.1225979209999997E+00   1.1606607996999998E+01  %24.16E %24.16E %24.16E  -2.4552963000000000E-01   0.0000000000000000E+00  -1.0907412999999999E-02  -9.4617309999999993E-03   1.8473020000000001E-03atom   9.5921024529999990E+00   2.2887993999999994E+00   1.2466811671999999E+01  %24.16E %24.16E %24.16E   1.5162405000000001E-01   0.0000000000000000E+00   4.8465760000000000E-03  -2.7998570000000002E-03  -8.5050569999999999E-03atom   1.1227075250999999E+01   3.8245048399999992E-01   1.0750977460999998E+01  %24.16E %24.16E %24.16E   1.0599131000000001E-01   0.0000000000000000E+00   2.0038600000000001E-03   2.4044803000000000E-02   3.8605730000000000E-03atom   1.5773417967999999E+01   2.0397711999999995E-02   1.1089635409999998E+00  %24.16E %24.16E %24.16E  -2.4942586999999999E-01   0.0000000000000000E+00  -2.0986709999999999E-02  -4.9812420000000003E-03   1.1220213000000000E-02atom   1.4434659858999998E+01   2.3547130732999996E+01   1.9885784909999997E+00  %24.16E %24.16E %24.16E   1.0789219000000000E-01   0.0000000000000000E+00   2.4960937999999998E-02   6.8423599999999996E-04  -9.3939690000000003E-03atom   1.7204224672999995E+01   2.3582846570999997E+01   5.7787469999999985E-01  %24.16E %24.16E %24.16E   1.1341358999999999E-01   0.0000000000000000E+00  -4.7310340000000003E-03  -2.0100909999999999E-03   4.8877770000000003E-03atom   7.8372831769999980E+00   1.4849360421999998E+01   1.9304315949999995E+00  %24.16E %24.16E %24.16E  -2.4627494999999999E-01   0.0000000000000000E+00  -5.5889570000000003E-03  -1.4293836000000001E-02  -1.2718320000000001E-03atom   7.4962441679999978E+00   1.3061338644999998E+01   2.2715839879999997E+00  %24.16E %24.16E %24.16E   1.2289024000000000E-01   0.0000000000000000E+00  -4.5554009999999997E-03   4.0916200000000002E-04  -9.7616479999999995E-03atom   8.7697122129999983E+00   1.5169158900999998E+01   3.4455957079999995E+00  %24.16E %24.16E %24.16E   1.4302381000000000E-01   0.0000000000000000E+00   1.0803411000000001E-02   1.3941557000000000E-02   1.1111767999999999E-02atom   2.7432220219999994E+00   1.0053328091999997E+01   2.3736292393999996E+01  %24.16E %24.16E %24.16E  -2.5254947999999999E-01   0.0000000000000000E+00   7.3224589999999999E-03   1.1795230000000000E-02   1.2191620000000000E-03atom   3.4976576839999995E+00   1.0068559291000000E+01   2.2018719633999996E+01  %24.16E %24.16E %24.16E   1.2524377000000000E-01   0.0000000000000000E+00  -1.1934368000000001E-02  -8.6249659999999995E-03   6.7942560000000003E-03atom   1.9222868719999995E+00   8.4346825349999985E+00   2.4040727393999997E+01  %24.16E %24.16E %24.16E   1.2916778000000001E-01   0.0000000000000000E+00   1.7345790000000000E-03  -1.6522830000000001E-03  -1.1524410000000001E-02atom   3.1616264499999995E+00   2.2658392199999994E-01   1.1717345991999998E+01  %24.16E %24.16E %24.16E  -2.8569966000000002E-01   0.0000000000000000E+00   4.0986590000000003E-02   1.1001559999999999E-03   1.3400632000000001E-02atom   1.4255532649999998E+00   4.7967315299999996E-01   1.2087826945999998E+01  %24.16E %24.16E %24.16E   1.2254168000000000E-01   0.0000000000000000E+00  -2.5013873999999998E-02  -3.8740710000000002E-03  -9.1189540000000003E-03atom   3.6116838029999991E+00   2.3808290987999996E+01   1.0271005731999999E+01  %24.16E %24.16E %24.16E   1.2106541000000000E-01   0.0000000000000000E+00  -1.5436266000000001E-02   2.0356770000000001E-03  -4.0589750000000003E-03atom   2.0940252504999997E+01   9.8800590349999986E+00   1.2200152311999998E+01  %24.16E %24.16E %24.16E  -2.7542206000000002E-01   0.0000000000000000E+00  -1.9388789999999999E-03  -4.4692339999999999E-03  -2.0539683000000000E-02atom   2.0788318463999996E+01   9.8148256629999988E+00   1.0312579722999999E+01  %24.16E %24.16E %24.16E   1.0906088999999999E-01   0.0000000000000000E+00   6.3327699999999997E-03   6.5552210000000000E-03   1.5207528000000000E-02atom   1.9358929053999997E+01   9.0357101689999979E+00   1.2661623615999998E+01  %24.16E %24.16E %24.16E   1.0658877999999999E-01   0.0000000000000000E+00   9.2300100000000001E-04   3.1706070000000002E-03   7.6463750000000004E-03atom   1.4396298402999996E+01   1.0368137692999998E+01   8.8076957239999984E+00  %24.16E %24.16E %24.16E  -2.0995034000000001E-01   0.0000000000000000E+00   7.8857730000000004E-03   1.5339112000000000E-02  -3.5168400000000000E-04atom   1.2860952006999998E+01   1.1366291429999999E+01   8.9963282609999986E+00  %24.16E %24.16E %24.16E   1.4548885000000000E-01   0.0000000000000000E+00   2.8262660000000000E-03   6.1368600000000001E-03   2.9732869999999998E-03atom   1.3798086462999999E+01   8.7427836049999978E+00   8.2534955219999979E+00  %24.16E %24.16E %24.16E   1.1038212999999999E-01   0.0000000000000000E+00  -1.1853069000000001E-02  -2.1986352000000001E-02  -4.5945750000000000E-03atom   1.3239067457999997E+01   1.0616920236999999E+01   1.9253482289999995E+00  %24.16E %24.16E %24.16E  -2.1505951000000001E-01   0.0000000000000000E+00  -7.3384569999999996E-03  -1.3641750000000000E-03  -1.8737114999999999E-02atom   1.1553185417999998E+01   9.9553646509999982E+00   1.5063239709999998E+00  %24.16E %24.16E %24.16E   1.2651243000000001E-01   0.0000000000000000E+00   1.3430980000000000E-03   2.2057359999999998E-03   1.1314721000000000E-02atom   1.3445576810999999E+01   1.0495902126999999E+01   3.7223651069999995E+00  %24.16E %24.16E %24.16E   1.5288415000000000E-01   0.0000000000000000E+00  -1.7477800000000000E-04   1.6676960000000000E-03   9.7534630000000004E-03atom   2.8060365399999992E-01   4.6152610559999996E+00   7.3143957499999992E+00  %24.16E %24.16E %24.16E  -2.4372394000000000E-01   0.0000000000000000E+00   4.8073660000000004E-03  -1.4069467000000000E-02  -7.5395400000000004E-04atom   2.4543432713000001E+01   3.3498999389999997E+00   8.6236552229999983E+00  %24.16E %24.16E %24.16E   1.2857420999999999E-01   0.0000000000000000E+00  -3.7493740000000002E-03   9.1892190000000002E-03   2.2525930000000002E-03atom   1.5068134099999997E+00   3.6950774499999994E+00   6.2568101029999994E+00  %24.16E %24.16E %24.16E   1.1684355000000000E-01   0.0000000000000000E+00  -3.8975300000000001E-04   8.6493049999999995E-03  -9.3880400000000001E-04atom   1.2581763757999997E+01   1.3096052926999997E+01   1.5795943511999997E+01  %24.16E %24.16E %24.16E  -2.5871127999999999E-01   0.0000000000000000E+00   2.6171215000000001E-02  -1.4179379000000001E-02  -2.6224186000000000E-02atom   1.1541128960999998E+01   1.2460953517999998E+01   1.4408562729999996E+01  %24.16E %24.16E %24.16E   1.2197974000000000E-01   0.0000000000000000E+00  -1.1525216000000000E-02   1.2724790000000000E-03   3.2518320000000001E-03atom   1.4196724347000000E+01   1.2431190319999997E+01   1.5023442061999999E+01  %24.16E %24.16E %24.16E   1.2061922999999999E-01   0.0000000000000000E+00  -1.8602989000000000E-02   8.2172940000000000E-03   2.1267917000000001E-02atom   9.1790648499999996E+00   2.2130969410999995E+01   1.9406361198999996E+01  %24.16E %24.16E %24.16E  -2.5979201000000002E-01   0.0000000000000000E+00  -2.0138004000000001E-02  -3.6495307999999997E-02  -2.1207666999999999E-02atom   7.4829404909999990E+00   2.1652301592999997E+01   1.8509912561999997E+01  %24.16E %24.16E %24.16E   1.1488959999999999E-01   0.0000000000000000E+00   3.8012094000000003E-02   1.6497477000000000E-02   1.6307899000000001E-02atom   1.0263673590999998E+01   2.0515819848999996E+01   1.9111752777999996E+01  %24.16E %24.16E %24.16E   9.6062120000000001E-02   0.0000000000000000E+00  -1.4941800000000000E-02   2.7661485999999999E-02   6.9632640000000003E-03atom   8.2236756319999991E+00   5.6221831259999995E+00   4.3022655939999987E+00  %24.16E %24.16E %24.16E  -2.4573600000000001E-01   0.0000000000000000E+00   1.1079563000000001E-02  -1.0134595000000000E-02  -1.1611646000000000E-02atom   9.5650037699999988E+00   5.2260774750000003E+00   5.5612772289999990E+00  %24.16E %24.16E %24.16E   1.0885067000000000E-01   0.0000000000000000E+00  -8.7967449999999999E-03   5.7681030000000001E-03  -4.9191499999999997E-03atom   9.1674619269999980E+00   5.4489329659999992E+00   2.6817681039999997E+00  %24.16E %24.16E %24.16E   1.1450713999999999E-01   0.0000000000000000E+00  -1.0304827000000001E-02   3.1240339999999999E-03   1.3973134000000000E-02atom   2.2361327116999995E+01   2.2034593339999997E+00   1.2298040163999998E+01  %24.16E %24.16E %24.16E  -2.5589351999999999E-01   0.0000000000000000E+00  -5.4710230000000002E-03   1.7913800000000000E-03  -6.2914319999999996E-03atom   2.2147410034999996E+01   3.8158309979999996E+00   1.3186684228999999E+01  %24.16E %24.16E %24.16E   1.2804544000000001E-01   0.0000000000000000E+00   2.3913250000000001E-03  -7.0906809999999997E-03  -2.2239600000000001E-03atom   2.0751468790000001E+01   1.7932676589999998E+00   1.1459398272999998E+01  %24.16E %24.16E %24.16E   1.2239585000000000E-01   0.0000000000000000E+00   6.4640679999999999E-03   2.4244480000000001E-03   6.3470749999999998E-03atom   2.6602252179999994E+00   1.0479631578999998E+01   9.2864202339999977E+00  %24.16E %24.16E %24.16E  -2.7100942000000000E-01   0.0000000000000000E+00  -1.6232310999999999E-02   2.3863880000000001E-03   1.4896468000000000E-02atom   3.6206600060000000E+00   1.0464910605999998E+01   7.7231058799999994E+00  %24.16E %24.16E %24.16E   9.6922670000000002E-02   0.0000000000000000E+00   1.0202526999999999E-02  -1.4451970000000001E-03  -1.1181931000000001E-02atom   1.6556709759999995E+00   8.9435481889999995E+00   9.1798018429999981E+00  %24.16E %24.16E %24.16E   1.3324016999999999E-01   0.0000000000000000E+00   9.2792099999999995E-04  -1.4206900000000001E-04   8.1887400000000003E-04atom   4.6989948539999995E+00   2.2558803575999995E+01   6.3553782569999990E+00  %24.16E %24.16E %24.16E  -2.7696183000000002E-01   0.0000000000000000E+00  -2.8833675000000000E-02  -2.3776022000000001E-02   5.1527789999999997E-03atom   4.0885752780000004E+00   2.3814338113999998E+01   5.1170213369999988E+00  %24.16E %24.16E %24.16E   1.0223754000000000E-01   0.0000000000000000E+00   8.9491459999999998E-03   2.1612229999999999E-03   4.3818559999999999E-03atom   3.2705503070000002E+00   2.1263395800999998E+01   6.3657339599999991E+00  %24.16E %24.16E %24.16E   1.0438306999999999E-01   0.0000000000000000E+00   2.5124840999999998E-02   2.2315788000000000E-02  -1.0567160000000001E-03atom   1.4858147651999998E+01   1.3922638360999997E+01   2.1749055608999996E+01  %24.16E %24.16E %24.16E  -2.5014208999999998E-01   0.0000000000000000E+00   6.2707869999999999E-03  -2.7460179999999998E-03  -1.3580999999999999E-04atom   1.4070906331999998E+01   1.3196983239999998E+01   2.3279923352999997E+01  %24.16E %24.16E %24.16E   1.3554989000000001E-01   0.0000000000000000E+00   1.3334347999999999E-02  -1.9054149999999999E-03  -1.2276501000000000E-02atom   1.5938164356999996E+01   1.2684697180999997E+01   2.0813262858999998E+01  %24.16E %24.16E %24.16E   1.3020699999999999E-01   0.0000000000000000E+00  -1.7172508000000000E-02   7.8483700000000003E-03   1.5089742000000000E-02atom   2.3199420987999996E+01   5.7224331369999994E+00   2.3543162306999996E+01  %24.16E %24.16E %24.16E  -2.2519679000000001E-01   0.0000000000000000E+00  -1.1636109000000000E-02   2.4722223000000002E-02   3.5812999999999998E-02atom   2.2521198010999996E+01   6.4201580949999997E+00   6.0426284599999991E-01  %24.16E %24.16E %24.16E   1.2369449000000000E-01   0.0000000000000000E+00   5.2072799999999999E-03  -1.6472638000000001E-02  -2.8288033000000001E-02atom   2.4243659668999999E+01   4.3455403389999994E+00   2.4113342213999999E+01  %24.16E %24.16E %24.16E   1.2925608999999999E-01   0.0000000000000000E+00   7.7624929999999997E-03  -1.3043523000000000E-02  -3.1995389999999999E-03atom   2.2811082113999998E+01   1.2833588760999998E+01   2.1631514596999995E+01  %24.16E %24.16E %24.16E  -1.9367540999999999E-01   0.0000000000000000E+00   3.3911256000000001E-02  -1.2950592000000000E-02   5.5479010000000000E-03atom   2.4506273124000000E+01   1.1986367509999997E+01   2.1932926033999998E+01  %24.16E %24.16E %24.16E   1.3291964000000001E-01   0.0000000000000000E+00  -1.8608124000000000E-02   1.6475461000000000E-02   1.4386379999999999E-03atom   2.1863384084999996E+01   1.1422132858999998E+01   2.1016408497999997E+01  %24.16E %24.16E %24.16E   1.4880913000000001E-01   0.0000000000000000E+00  -1.6021937999999999E-02  -1.1104708000000000E-02  -5.6606979999999996E-03atom   1.2498483493999998E+01   5.6456535339999991E+00   7.3038132799999982E+00  %24.16E %24.16E %24.16E  -2.0894272999999999E-01   0.0000000000000000E+00   6.2084990000000001E-03  -1.6658785999999998E-02   2.2376647999999999E-02atom   1.3989364616999998E+01   5.0332686419999995E+00   6.3733684569999989E+00  %24.16E %24.16E %24.16E   1.1275699000000000E-01   0.0000000000000000E+00  -7.6294700000000004E-04  -6.0833190000000002E-03  -1.0681100000000000E-04atom   1.2365484517000001E+01   4.4362661259999987E+00   8.7903669279999974E+00  %24.16E %24.16E %24.16E   1.3073478999999999E-01   0.0000000000000000E+00  -2.7952459999999999E-03   1.6900286000000000E-02  -1.8689345999999999E-02atom   1.9584373470999999E+01   1.5643007915999998E+01   5.4018031769999988E+00  %24.16E %24.16E %24.16E  -2.2878213000000000E-01   0.0000000000000000E+00   4.3460340000000004E-03   7.4776069999999998E-03  -1.9886035999999999E-02atom   2.0012585580999996E+01   1.5748171216999998E+01   3.5916904929999993E+00  %24.16E %24.16E %24.16E   1.3117354000000001E-01   0.0000000000000000E+00  -4.8137199999999998E-04   1.0421085000000000E-02   3.9669919999999999E-03atom   1.9823234947999996E+01   1.3842967475999997E+01   5.6544029689999995E+00  %24.16E %24.16E %24.16E   1.0856560000000000E-01   0.0000000000000000E+00  -2.5769069999999998E-03  -1.4081659000000000E-02   1.1216978000000001E-02atom   3.1394788509999993E+00   1.0020012207999999E+01   1.8405769713999998E+01  %24.16E %24.16E %24.16E  -2.5038303000000001E-01   0.0000000000000000E+00  -7.3967850000000003E-03  -6.2788640000000003E-03  -9.3291769999999993E-03atom   3.4329723329999995E+00   1.1224013892999999E+01   1.7028782429999996E+01  %24.16E %24.16E %24.16E   1.1901984000000000E-01   0.0000000000000000E+00   6.3995529999999997E-03  -4.3598439999999999E-03   4.1212820000000004E-03atom   2.1000534789999996E+00   8.6717109780000001E+00   1.7600330323999998E+01  %24.16E %24.16E %24.16E   1.1771791000000000E-01   0.0000000000000000E+00   3.5098600000000001E-03   7.0080009999999998E-03   6.6373980000000001E-03atom   2.2195598069999996E+01   1.6701595118000000E+01   1.8005336588999995E+01  %24.16E %24.16E %24.16E  -2.6516652000000002E-01   0.0000000000000000E+00  -7.7743079999999997E-03  -1.7673685000000001E-02   1.2201895000000001E-02atom   2.3276143898999997E+01   1.6367264638999998E+01   1.6513926341999998E+01  %24.16E %24.16E %24.16E   1.0095280000000000E-01   0.0000000000000000E+00  -8.9167650000000001E-03  -4.1166029999999999E-03   6.6963910000000003E-03atom   2.2025711623999996E+01   1.5065488484999996E+01   1.9011975198999995E+01  %24.16E %24.16E %24.16E   1.0952106000000000E-01   0.0000000000000000E+00   1.2402257999999999E-02   2.8689691999999999E-02  -1.8333011999999999E-02atom   2.0942142231999995E+01   6.0036244959999987E+00   3.8974671989999994E+00  %24.16E %24.16E %24.16E  -2.5521164000000002E-01   0.0000000000000000E+00  -9.6676300000000000E-03   2.2834908000000001E-02  -1.7149686000000001E-02atom   1.9508973367999996E+01   4.8581854460000002E+00   4.2097634629999989E+00  %24.16E %24.16E %24.16E   9.6831860000000006E-02   0.0000000000000000E+00  -1.4707040000000000E-03  -5.5377389999999999E-03   3.7402600000000000E-03atom   2.2295186676999997E+01   5.5180591749999994E+00   4.9941890899999990E+00  %24.16E %24.16E %24.16E   1.0746398000000000E-01   0.0000000000000000E+00   1.5723348000000002E-02  -1.0209932000000000E-02   1.7589318000000000E-02atom   2.0371633687999999E+01   1.8819336440999997E+01   9.7559039789999975E+00  %24.16E %24.16E %24.16E  -2.4552805999999999E-01   0.0000000000000000E+00   3.3850970000000001E-03   2.3137024999999999E-02   2.6048386999999999E-02atom   2.1831069754999998E+01   1.8255630914000001E+01   1.0746423218999999E+01  %24.16E %24.16E %24.16E   1.2786133999999999E-01   0.0000000000000000E+00  -6.9273160000000002E-03  -1.4762770000000000E-03   4.7818099999999999E-04atom   2.0365586561999997E+01   1.7794877706000001E+01   8.2944081090000008E+00  %24.16E %24.16E %24.16E   1.1322271000000000E-01   0.0000000000000000E+00  -5.6651000000000000E-04  -2.0897685999999999E-02  -2.9570501999999999E-02atom   1.8364932715999998E+01   1.1196442777999998E+01   1.7704000740999998E+01  %24.16E %24.16E %24.16E  -2.5266466999999998E-01   0.0000000000000000E+00   5.3762170000000000E-03  -3.5324680000000000E-03   2.7089742999999999E-02atom   1.8379785969999997E+01   1.2607690809999998E+01   1.6611870885999998E+01  %24.16E %24.16E %24.16E   1.4349310000000001E-01   0.0000000000000000E+00   7.0793729999999999E-03   2.6740297000000000E-02  -1.2272070000000000E-02atom   1.7475646144999995E+01   1.0040572436000000E+01   1.6643769475999996E+01  %24.16E %24.16E %24.16E   1.1950044000000000E-01   0.0000000000000000E+00  -1.0332588000000000E-02  -1.9959168999999999E-02  -1.0136355999999999E-02atom   2.4045140082000000E+01   6.5857737580000002E+00   1.5982516246999998E+01  %24.16E %24.16E %24.16E  -2.5082792999999998E-01   0.0000000000000000E+00   2.2748326999999999E-02  -2.3558400000000001E-03  -9.8162030000000008E-03atom   2.3444140617999995E+01   7.9512526049999988E+00   1.4918921267999997E+01  %24.16E %24.16E %24.16E   1.2569474000000000E-01   0.0000000000000000E+00  -1.1514172000000000E-02   3.1903900000000002E-04   1.4035120000000000E-03atom   2.2809003414999996E+01   6.1330518899999991E+00   1.7240677504999997E+01  %24.16E %24.16E %24.16E   1.1649490999999999E-01   0.0000000000000000E+00  -1.5439213000000000E-02   3.6119720000000002E-03   6.8930550000000004E-03atom   8.5154305649999991E+00   8.7723389339999986E+00   2.4604200660000004E+01  %24.16E %24.16E %24.16E  -2.4753394000000001E-01   0.0000000000000000E+00   2.6971309999999998E-02   1.1692622000000000E-02  -9.3620349999999995E-03atom   9.4716890570000007E+00   9.4444958869999986E+00   2.3101533134999997E+01  %24.16E %24.16E %24.16E   1.1194121000000000E-01   0.0000000000000000E+00  -2.2902763000000000E-02  -1.1268126000000000E-02   6.4452349999999997E-03atom   6.7619529949999988E+00   8.6693488189999979E+00   2.4100140582000002E+01  %24.16E %24.16E %24.16E   1.2031382000000000E-01   0.0000000000000000E+00  -4.3971150000000001E-03   2.5937009999999999E-03  -1.9593490000000000E-03atom   1.6377053423999996E+01   7.5275380449999991E+00   2.3898053013999995E+01  %24.16E %24.16E %24.16E  -2.7143221000000001E-01   0.0000000000000000E+00  -3.4555300000000001E-03  -1.8517690000000001E-03   2.2768403999999999E-02atom   1.5232502545999997E+01   8.8991396070000004E+00   2.4565317640000004E+01  %24.16E %24.16E %24.16E   9.9306480000000003E-02   0.0000000000000000E+00   1.3347497000000000E-02  -1.1708059999999999E-02  -4.6664400000000000E-04atom   1.7114084700999999E+01   6.8474442389999988E+00   8.7402135799999991E-01  %24.16E %24.16E %24.16E   1.3665715000000001E-01   0.0000000000000000E+00  -5.3173990000000004E-03   9.8226830000000005E-03  -2.1386581000000002E-02atom   2.3400676900000001E+00   1.6149700383999999E+01   8.7683138159999974E+00  %24.16E %24.16E %24.16E  -2.3632724999999999E-01   0.0000000000000000E+00  -1.6027953000000001E-02  -2.2321582999999999E-02  -6.0752660000000002E-03atom   1.6387862659999999E+00   1.4466237195000000E+01   8.2380375559999983E+00  %24.16E %24.16E %24.16E   1.3715815000000001E-01   0.0000000000000000E+00   1.5921026000000001E-02   1.6405207000000002E-02   1.2007177000000001E-02atom   1.6323479669999998E+00   1.7272916244999998E+01   7.4513820519999987E+00  %24.16E %24.16E %24.16E   1.0621508000000000E-01   0.0000000000000000E+00   3.8716290000000001E-03   1.1420110000000001E-03   5.6611699999999999E-04atom   2.0469332566999995E+01   2.2240573569999995E+01   2.4083599803000002E+01  %24.16E %24.16E %24.16E  -2.3882096000000000E-01   0.0000000000000000E+00  -5.2571809999999997E-03  -2.6065518999999999E-02   6.5831300000000000E-04atom   1.9743488473999996E+01   2.2698454391999995E+01   2.2449577362999996E+01  %24.16E %24.16E %24.16E   1.1654874000000000E-01   0.0000000000000000E+00   1.4559340000000001E-03   2.4723290000000001E-03  -6.3339470000000004E-03atom   2.0458939069999996E+01   2.0329492777999995E+01   2.4020129370999996E+01  %24.16E %24.16E %24.16E   1.2595592999999999E-01   0.0000000000000000E+00   9.7708699999999996E-04   2.1524228999999999E-02   1.8997800000000000E-03atom   4.7280021619999992E+00   1.9204349394999998E+01   6.8975219999999993E-01  %24.16E %24.16E %24.16E  -2.2718769000000000E-01   0.0000000000000000E+00  -4.84270000000000