 Entering Gaussian System, Link 0=/pbs/throng/ilm/sl6/allouche/Gaussian09D/g09/g09
 Initial command:
 /pbs/throng/ilm/sl6/allouche/Gaussian09D/g09/l1.exe "/scratch/6332026.1.long/Gau-23206.inp" -scrdir="/scratch/6332026.1.long/"
 Entering Link 1 = /pbs/throng/ilm/sl6/allouche/Gaussian09D/g09/l1.exe PID=     23209.
  
 Copyright (c) 1988,1990,1992,1993,1995,1998,2003,2009,2013,
            Gaussian, Inc.  All Rights Reserved.
  
 This is part of the Gaussian(R) 09 program.  It is based on
 the Gaussian(R) 03 system (copyright 2003, Gaussian, Inc.),
 the Gaussian(R) 98 system (copyright 1998, Gaussian, Inc.),
 the Gaussian(R) 94 system (copyright 1995, Gaussian, Inc.),
 the Gaussian 92(TM) system (copyright 1992, Gaussian, Inc.),
 the Gaussian 90(TM) system (copyright 1990, Gaussian, Inc.),
 the Gaussian 88(TM) system (copyright 1988, Gaussian, Inc.),
 the Gaussian 86(TM) system (copyright 1986, Carnegie Mellon
 University), and the Gaussian 82(TM) system (copyright 1983,
 Carnegie Mellon University). Gaussian is a federally registered
 trademark of Gaussian, Inc.
  
 This software contains proprietary and confidential information,
 including trade secrets, belonging to Gaussian, Inc.
  
 This software is provided under written license and may be
 used, copied, transmitted, or stored only in accord with that
 written license.
  
 The following legend is applicable only to US Government
 contracts under FAR:
  
                    RESTRICTED RIGHTS LEGEND
  
 Use, reproduction and disclosure by the US Government is
 subject to restrictions as set forth in subparagraphs (a)
 and (c) of the Commercial Computer Software - Restricted
 Rights clause in FAR 52.227-19.
  
 Gaussian, Inc.
 340 Quinnipiac St., Bldg. 40, Wallingford CT 06492
  
  
 ---------------------------------------------------------------
 Warning -- This program may not be used in any manner that
 competes with the business of Gaussian, Inc. or will provide
 assistance to any competitor of Gaussian, Inc.  The licensee
 of this program is prohibited from giving any competitor of
 Gaussian, Inc. access to this program.  By using this program,
 the user acknowledges that Gaussian, Inc. is engaged in the
 business of creating and licensing software in the field of
 computational chemistry and represents and warrants to the
 licensee that it is not a competitor of Gaussian, Inc. and that
 it will not use this program in any manner prohibited above.
 ---------------------------------------------------------------
  

 Cite this work as:
 Gaussian 09, Revision D.01,
 M. J. Frisch, G. W. Trucks, H. B. Schlegel, G. E. Scuseria, 
 M. A. Robb, J. R. Cheeseman, G. Scalmani, V. Barone, B. Mennucci, 
 G. A. Petersson, H. Nakatsuji, M. Caricato, X. Li, H. P. Hratchian, 
 A. F. Izmaylov, J. Bloino, G. Zheng, J. L. Sonnenberg, M. Hada, 
 M. Ehara, K. Toyota, R. Fukuda, J. Hasegawa, M. Ishida, T. Nakajima, 
 Y. Honda, O. Kitao, H. Nakai, T. Vreven, J. A. Montgomery, Jr., 
 J. E. Peralta, F. Ogliaro, M. Bearpark, J. J. Heyd, E. Brothers, 
 K. N. Kudin, V. N. Staroverov, T. Keith, R. Kobayashi, J. Normand, 
 K. Raghavachari, A. Rendell, J. C. Burant, S. S. Iyengar, J. Tomasi, 
 M. Cossi, N. Rega, J. M. Millam, M. Klene, J. E. Knox, J. B. Cross, 
 V. Bakken, C. Adamo, J. Jaramillo, R. Gomperts, R. E. Stratmann, 
 O. Yazyev, A. J. Austin, R. Cammi, C. Pomelli, J. W. Ochterski, 
 R. L. Martin, K. Morokuma, V. G. Zakrzewski, G. A. Voth, 
 P. Salvador, J. J. Dannenberg, S. Dapprich, A. D. Daniels, 
 O. Farkas, J. B. Foresman, J. V. Ortiz, J. Cioslowski, 
 and D. J. Fox, Gaussian, Inc., Wallingford CT, 2013.
 
 ******************************************
 Gaussian 09:  EM64L-G09RevD.01 24-Apr-2013
                16-May-2019 
 ******************************************
 -------------------------------------------------
 # B2PLYP/def2tzvpp nosym scf(tight) force Pop=NPA
 -------------------------------------------------
 1/10=7,30=1,38=1/1,3;
 2/12=2,15=1,17=6,18=5,40=1/2;
 3/5=44,7=202,11=9,16=1,25=1,30=1,71=1,74=-47/1,2,3;
 4//1;
 5/5=2,32=2,38=5/2;
 8/6=4,10=1/1;
 9/15=2,16=-3/6;
 10/5=1,31=1/2;
 6/7=2,8=2,9=2,10=2,18=1,40=-1/1,7;
 7/12=2,29=1,30=1/1,2,3,16;
 1/10=7,30=1/3;
 99//99;
 -----
 xPert
 -----
 Symbolic Z-matrix:
 Charge =  0 Multiplicity = 1
 H                     0.        0.75857  -0.4694 
 H                     0.       -0.75857  -0.6694 
 O                     0.        0.        0.11735 
 

 GradGradGradGradGradGradGradGradGradGradGradGradGradGradGradGradGradGrad
 Berny optimization.
 Initialization pass.
 Trust Radius=3.00D-01 FncErr=1.00D-07 GrdErr=1.00D-07
 Number of steps in this run=      2 maximum allowed number of steps=      2.
 GradGradGradGradGradGradGradGradGradGradGradGradGradGradGradGradGradGrad

                          Input orientation:                          
 ---------------------------------------------------------------------
 Center     Atomic      Atomic             Coordinates (Angstroms)
 Number     Number       Type             X           Y           Z
 ---------------------------------------------------------------------
      1          1           0        0.000000    0.758568   -0.469403
      2          1           0        0.000000   -0.758568   -0.669403
      3          8           0        0.000000    0.000000    0.117351
 ---------------------------------------------------------------------
                    Distance matrix (angstroms):
                    1          2          3
     1  H    0.000000
     2  H    1.530262   0.000000
     3  O    0.959013   1.092889   0.000000
 Symmetry turned off by external request.
 Stoichiometry    H2O
 Framework group  CS[SG(H2O)]
 Deg. of freedom     3
 Full point group                 CS      NOp   2
 Rotational constants (GHZ):    632.0973297    412.6426659    249.6605168
 Standard basis: def2TZVPP (5D, 7F)
    59 basis functions,    85 primitive gaussians,    66 cartesian basis functions
     5 alpha electrons        5 beta electrons
       nuclear repulsion energy         8.6337586014 Hartrees.
 NAtoms=    3 NActive=    3 NUniq=    3 SFac= 1.00D+00 NAtFMM=   60 NAOKFM=F Big=F
 Integral buffers will be    131072 words long.
 Regular integral format.
 Two-electron integral symmetry is turned off.
 One-electron integrals computed using PRISM.
   1 Symmetry operations used in ECPInt.
 ECPInt:  NShTT=     276 NPrTT=     694 LenC2=     277 LenP2D=     680.
 LDataN:  DoStor=T MaxTD1= 6 Len=  172
 NBasis=    59 RedAO= T EigKep=  2.74D-03  NBF=    59
 NBsUse=    59 1.00D-06 EigRej= -1.00D+00 NBFU=    59
 ExpMin= 1.03D-01 ExpMax= 2.70D+04 ExpMxC= 9.22D+02 IAcc=1 IRadAn=         1 AccDes= 0.00D+00
 Harris functional with IExCor=  419 and IRadAn=       1 diagonalized for initial guess.
 HarFok:  IExCor=  419 AccDes= 0.00D+00 IRadAn=         1 IDoV= 1 UseB2=F ITyADJ=14
 ICtDFT=  3500011 ScaDFX=  1.000000  1.000000  1.000000  1.000000
 FoFCou: FMM=F IPFlag=           0 FMFlag=      100000 FMFlg1=           0
         NFxFlg=           0 DoJE=T BraDBF=F KetDBF=T FulRan=T
         wScrn=  0.000000 ICntrl=     500 IOpCl=  0 I1Cent=   200000004 NGrid=           0
         NMat0=    1 NMatS0=      1 NMatT0=    0 NMatD0=    1 NMtDS0=    0 NMtDT0=    0
 Symmetry not used in FoFCou.
 Keep R1 ints in memory in canonical form, NReq=3557621.
 Requested convergence on RMS density matrix=1.00D-08 within 128 cycles.
 Requested convergence on MAX density matrix=1.00D-06.
 Requested convergence on             energy=1.00D-06.
 No special actions if energy rises.
 Integral accuracy reduced to 1.0D-05 until final iterations.
 Initial convergence to 1.0D-05 achieved.  Increase integral accuracy.
 SCF Done:  E(RB2PLYP) =  -76.3135773891     A.U. after   10 cycles
            NFock= 10  Conv=0.58D-08     -V/T= 2.0047
 DoSCS=T DFT=T ScalE2(SS,OS)=  0.270000  0.270000
 ExpMin= 1.03D-01 ExpMax= 2.70D+04 ExpMxC= 9.22D+02 IAcc=3 IRadAn=         5 AccDes= 0.00D+00
 HarFok:  IExCor=  205 AccDes= 0.00D+00 IRadAn=         5 IDoV=-2 UseB2=F ITyADJ=14
 ICtDFT= 12500011 ScaDFX=  1.000000  1.000000  1.000000  1.000000
 Range of M.O.s used for correlation:     2    59
 NBasis=    59 NAE=     5 NBE=     5 NFC=     1 NFV=     0
 NROrb=     58 NOA=     4 NOB=     4 NVA=    54 NVB=    54
 DoSCS=T DFT=T ScalE2(SS,OS)=  0.270000  0.270000
 Fully direct method using O(ONN) memory.
 JobTyp=1 Pass  1:  I=   2 to   5 NPSUse=  1 ParTrn=F ParDer=F DoDerP=T.
 Spin components of T(2) and E(2):
     alpha-alpha T2 =       0.1271914998D-01 E2=     -0.1050913616D-01
     alpha-beta  T2 =       0.7559505123D-01 E2=     -0.6515541613D-01
     beta-beta   T2 =       0.1271914998D-01 E2=     -0.1050913616D-01
 E2(B2PLYP) =    -0.8617368844D-01 E(B2PLYP) =    -0.76399751077573D+02
          IDoAtm=111
          Differentiating once with respect to electric field.
                with respect to dipole field.
          Differentiating once with respect to nuclear coordinates.
 Keep R1 ints in memory in canonical form, NReq=3533313.
          There are     1 degrees of freedom in the 1st order CPHF.  IDoFFX=0 NUNeed=     1.
 LinEq1:  Iter=  0 NonCon=     1 RMS=2.20D-03 Max=1.81D-02 NDo=     1
 AX will form     1 AO Fock derivatives at one time.
 LinEq1:  Iter=  1 NonCon=     1 RMS=2.87D-04 Max=2.22D-03 NDo=     1
 LinEq1:  Iter=  2 NonCon=     1 RMS=8.29D-05 Max=6.79D-04 NDo=     1
 LinEq1:  Iter=  3 NonCon=     1 RMS=3.98D-05 Max=2.08D-04 NDo=     1
 LinEq1:  Iter=  4 NonCon=     1 RMS=1.00D-05 Max=5.47D-05 NDo=     1
 LinEq1:  Iter=  5 NonCon=     1 RMS=1.01D-06 Max=8.08D-06 NDo=     1
 LinEq1:  Iter=  6 NonCon=     1 RMS=2.59D-07 Max=1.65D-06 NDo=     1
 LinEq1:  Iter=  7 NonCon=     1 RMS=4.42D-08 Max=2.79D-07 NDo=     1
 LinEq1:  Iter=  8 NonCon=     1 RMS=4.35D-09 Max=3.17D-08 NDo=     1
 LinEq1:  Iter=  9 NonCon=     1 RMS=3.20D-10 Max=2.21D-09 NDo=     1
 LinEq1:  Iter= 10 NonCon=     0 RMS=3.98D-11 Max=2.46D-10 NDo=     1
 Linear equations converged to 1.000D-10 1.000D-09 after    10 iterations.
 End of Minotr F.D. properties file   721 does not exist.
 End of Minotr F.D. properties file   722 does not exist.
 End of Minotr F.D. properties file   788 does not exist.

 **********************************************************************

            Population analysis using the SCF density.

 **********************************************************************

 Alpha  occ. eigenvalues --  -19.73881  -1.13298  -0.56708  -0.47703  -0.39381
 Alpha virt. eigenvalues --    0.04630   0.12549   0.38128   0.46969   0.47795
 Alpha virt. eigenvalues --    0.49462   0.60088   0.63172   0.66595   0.75119
 Alpha virt. eigenvalues --    0.80406   1.06301   1.20538   1.28896   1.82407
 Alpha virt. eigenvalues --    1.85558   1.89457   1.96983   2.01091   2.24497
 Alpha virt. eigenvalues --    2.51963   2.68415   2.84928   3.12097   3.18681
 Alpha virt. eigenvalues --    3.21757   3.40575   3.41797   3.44883   3.63549
 Alpha virt. eigenvalues --    3.71787   3.72386   3.76003   3.96871   4.07207
 Alpha virt. eigenvalues --    4.16357   4.20752   4.57063   4.75980   4.84924
 Alpha virt. eigenvalues --    5.07109   5.69110   6.16224   6.19591   6.46929
 Alpha virt. eigenvalues --    6.60153   6.74155   6.82316   6.88597   6.92797
 Alpha virt. eigenvalues --    7.43176   7.53626   7.60304  43.99828
          Condensed to atoms (all electrons):
               1          2          3
     1  H    0.500620  -0.021584   0.318807
     2  H   -0.021584   0.485391   0.291778
     3  O    0.318807   0.291778   7.835988
 Mulliken charges:
               1
     1  H    0.202157
     2  H    0.244415
     3  O   -0.446572
 Sum of Mulliken charges =   0.00000
 Mulliken charges with hydrogens summed into heavy atoms:
               1
     3  O    0.000000
 Electronic spatial extent (au):  <R**2>=             20.3265
 Charge=              0.0000 electrons
 Dipole moment (field-independent basis, Debye):
    X=              0.0000    Y=              0.0917    Z=             -2.1597  Tot=              2.1617
 Quadrupole moment (field-independent basis, Debye-Ang):
   XX=             -7.5999   YY=             -4.5935   ZZ=             -5.8787
   XY=              0.0000   XZ=              0.0000   YZ=              0.2856
 Traceless Quadrupole moment (field-independent basis, Debye-Ang):
   XX=             -1.5759   YY=              1.4305   ZZ=              0.1454
   XY=              0.0000   XZ=              0.0000   YZ=              0.2856
 Octapole moment (field-independent basis, Debye-Ang**2):
  XXX=              0.0000  YYY=              0.2560  ZZZ=             -0.9778  XYY=              0.0000
  XXY=              0.0874  XXZ=             -0.1097  XZZ=              0.0000  YZZ=             -0.2490
  YYZ=             -1.3500  XYZ=              0.0000
 Hexadecapole moment (field-independent basis, Debye-Ang**3):
 XXXX=             -6.3773 YYYY=             -6.9034 ZZZZ=             -7.5727 XXXY=              0.0000
 XXXZ=              0.0000 YYYX=              0.0000 YYYZ=             -0.1335 ZZZX=              0.0000
 ZZZY=              0.0200 XXYY=             -2.5106 XXZZ=             -2.4431 YYZZ=             -1.8197
 XXYZ=             -0.1140 YYXZ=              0.0000 ZZXY=              0.0000
 N-N= 8.633758601444D+00 E-N=-1.980315983709D+02  KE= 7.595337655128D+01
 ******************************Gaussian NBO Version 3.1******************************
             N A T U R A L   A T O M I C   O R B I T A L   A N D
          N A T U R A L   B O N D   O R B I T A L   A N A L Y S I S
 ******************************Gaussian NBO Version 3.1******************************
       /RESON  / : Allow strongly delocalized NBO set

 Analyzing the SCF density

 Job title: xPert                                                           

 Storage needed:     10799 in NPA ( 536870849 available)


 NATURAL POPULATIONS:  Natural atomic orbital occupancies 
                                                          
   NAO  Atom  No  lang   Type(AO)    Occupancy      Energy
 ----------------------------------------------------------
     1    H    1  S      Val( 1S)     0.54064       0.17350
     2    H    1  S      Ryd( 2S)     0.00169       0.82946
     3    H    1  S      Ryd( 3S)     0.00007       1.71065
     4    H    1  px     Ryd( 2p)     0.00234       1.62501
     5    H    1  px     Ryd( 3p)     0.00000       3.53109
     6    H    1  py     Ryd( 2p)     0.00040       2.36395
     7    H    1  py     Ryd( 3p)     0.00068       3.84260
     8    H    1  pz     Ryd( 2p)     0.00149       2.03726
     9    H    1  pz     Ryd( 3p)     0.00064       3.71059
    10    H    1  dxy    Ryd( 3d)     0.00003       3.84417
    11    H    1  dxz    Ryd( 3d)     0.00000       3.67717
    12    H    1  dyz    Ryd( 3d)     0.00003       4.18173
    13    H    1  dx2y2  Ryd( 3d)     0.00013       3.96154
    14    H    1  dz2    Ryd( 3d)     0.00001       3.90640

    15    H    2  S      Val( 1S)     0.54320       0.03377
    16    H    2  S      Ryd( 2S)     0.00147       0.76461
    17    H    2  S      Ryd( 3S)     0.00004       1.89964
    18    H    2  px     Ryd( 2p)     0.00191       1.34339
    19    H    2  px     Ryd( 3p)     0.00001       3.50859
    20    H    2  py     Ryd( 2p)     0.00060       2.07291
    21    H    2  py     Ryd( 3p)     0.00023       3.82687
    22    H    2  pz     Ryd( 2p)     0.00119       2.03563
    23    H    2  pz     Ryd( 3p)     0.00051       3.77265
    24    H    2  dxy    Ryd( 3d)     0.00003       3.64755
    25    H    2  dxz    Ryd( 3d)     0.00000       3.67365
    26    H    2  dyz    Ryd( 3d)     0.00003       4.02239
    27    H    2  dx2y2  Ryd( 3d)     0.00009       3.76396
    28    H    2  dz2    Ryd( 3d)     0.00001       3.89735

    29    O    3  S      Cor( 1S)     1.99988     -19.53554
    30    O    3  S      Val( 2S)     1.79282      -1.08214
    31    O    3  S      Ryd( 3S)     0.00069       2.02265
    32    O    3  S      Ryd( 4S)     0.00002       3.02141
    33    O    3  S      Ryd( 5S)     0.00000      42.94081
    34    O    3  px     Val( 2p)     1.99235      -0.38829
    35    O    3  px     Ryd( 3p)     0.00079       0.59581
    36    O    3  px     Ryd( 4p)     0.00000       2.69867
    37    O    3  py     Val( 2p)     1.46247      -0.30327
    38    O    3  py     Ryd( 3p)     0.00184       0.64353
    39    O    3  py     Ryd( 4p)     0.00001       3.26899
    40    O    3  pz     Val( 2p)     1.64295      -0.33813
    41    O    3  pz     Ryd( 3p)     0.00017       0.63223
    42    O    3  pz     Ryd( 4p)     0.00023       3.09805
    43    O    3  dxy    Ryd( 3d)     0.00007       2.18266
    44    O    3  dxy    Ryd( 4d)     0.00000       6.50290
    45    O    3  dxz    Ryd( 3d)     0.00228       2.13270
    46    O    3  dxz    Ryd( 4d)     0.00003       6.51348
    47    O    3  dyz    Ryd( 3d)     0.00213       3.20830
    48    O    3  dyz    Ryd( 4d)     0.00013       7.01153
    49    O    3  dx2y2  Ryd( 3d)     0.00074       2.46064
    50    O    3  dx2y2  Ryd( 4d)     0.00001       6.64060
    51    O    3  dz2    Ryd( 3d)     0.00259       2.41882
    52    O    3  dz2    Ryd( 4d)     0.00003       6.63963
    53    O    3  f(0)   Ryd( 4f)     0.00002       5.86804
    54    O    3  f(C1)  Ryd( 4f)     0.00004       5.56592
    55    O    3  f(S1)  Ryd( 4f)     0.00001       6.28654
    56    O    3  f(C2)  Ryd( 4f)     0.00007       6.13817
    57    O    3  f(S2)  Ryd( 4f)     0.00000       5.95265
    58    O    3  f(C3)  Ryd( 4f)     0.00013       5.72287
    59    O    3  f(S3)  Ryd( 4f)     0.00003       5.73729

 WARNING:  Population inversion found on atom  H    1
           Population inversion found on atom  O    3


 Summary of Natural Population Analysis:                  
                                                          
                                       Natural Population 
                Natural  -----------------------------------------------
    Atom  No    Charge         Core      Valence    Rydberg      Total
 -----------------------------------------------------------------------
      H    1    0.45185      0.00000     0.54064    0.00751     0.54815
      H    2    0.45068      0.00000     0.54320    0.00612     0.54932
      O    3   -0.90253      1.99988     6.89059    0.01206     8.90253
 =======================================================================
   * Total *    0.00000      1.99988     7.97443    0.02569    10.00000

                                 Natural Population      
 --------------------------------------------------------
   Core                       1.99988 ( 99.9940% of   2)
   Valence                    7.97443 ( 99.6804% of   8)
   Natural Minimal Basis      9.97431 ( 99.7431% of  10)
   Natural Rydberg Basis      0.02569 (  0.2569% of  10)
 --------------------------------------------------------

    Atom  No          Natural Electron Configuration
 ----------------------------------------------------------------------------
      H    1            1S( 0.54)
      H    2            1S( 0.54)
      O    3      [core]2S( 1.79)2p( 5.10)3d( 0.01)


 NBO analysis skipped by request.
   1 Symmetry operations used in ECPInt.
 ECPInt:  NShTT=     276 NPrTT=     694 LenC2=     277 LenP2D=     680.
 LDataN:  DoStor=T MaxTD1= 7 Len=  274
 Calling FoFJK, ICntrl=  10002127 FMM=F ISym2X=0 I1Cent= 0 IOpClX= 0 NMat=1 NMatS=1 NMatT=0.
 -------------------------------------------------------------------
 Center     Atomic                   Forces (Hartrees/Bohr)
 Number     Number              X              Y              Z
 -------------------------------------------------------------------
      1        1           0.000000000    0.009691068    0.003501103
      2        1           0.000000000    0.052683651    0.065638553
      3        8           0.000000000   -0.062374719   -0.069139656
 -------------------------------------------------------------------
 Cartesian Forces:  Max     0.069139656 RMS     0.041980232

 GradGradGradGradGradGradGradGradGradGradGradGradGradGradGradGradGradGrad
 Berny optimization.
 Search for a local minimum.
 Step number   1 out of a maximum of    2
 All quantities printed in internal units (Hartrees-Bohrs-Radians)
 Second derivative matrix not updated -- first step.
 The second derivative matrix:
                          X1        Y1        Z1        X2        Y2
           X1           1.00000
           Y1           0.00000   0.36664
           Z1           0.00000  -0.24592   0.23893
           X2           0.00000   0.00000   0.00000   1.00000
           Y2           0.00000  -0.01883  -0.02434   0.00000   0.18556
           Z2           0.00000   0.01815   0.02347   0.00000   0.15355
           X3           0.00000   0.00000   0.00000   0.00000   0.00000
           Y3           0.00000  -0.34782   0.27026   0.00000  -0.16673
           Z3           0.00000   0.22776  -0.26240   0.00000  -0.12920
                          Z2        X3        Y3        Z3
           Z2           0.19676
           X3           0.00000   1.00000
           Y3          -0.17170   0.00000   0.51454
           Z3          -0.22023   0.00000  -0.09856   0.48264
 ITU=  0
     Eigenvalues ---    0.12075   0.58573   0.92838
 Angle between quadratic step and forces=  27.02 degrees.
 Linear search not attempted -- first point.
 TrRot=  0.000000 -0.027031 -0.039151  0.000000  0.000000  0.000000
 Variable       Old X    -DE/DX   Delta X   Delta X   Delta X     New X
                                 (Linear)    (Quad)   (Total)
    X1        0.00000   0.00000   0.00000   0.00000   0.00000   0.00000
    Y1        1.43349   0.00969   0.00000   0.04212   0.01509   1.44858
    Z1       -0.88704   0.00350   0.00000   0.03135  -0.00780  -0.89485
    X2        0.00000   0.00000   0.00000   0.00000   0.00000   0.00000
    Y2       -1.43349   0.05268   0.00000   0.08332   0.05629  -1.37720
    Z2       -1.26499   0.06564   0.00000   0.15034   0.11119  -1.15379
    X3        0.00000   0.00000   0.00000   0.00000   0.00000   0.00000
    Y3        0.00000  -0.06237   0.00000  -0.04435  -0.07138  -0.07138
    Z3        0.22176  -0.06914   0.00000  -0.06424  -0.10339   0.11837
         Item               Value     Threshold  Converged?
 Maximum Force            0.069140     0.000450     NO 
 RMS     Force            0.041980     0.000300     NO 
 Maximum Displacement     0.111194     0.001800     NO 
 RMS     Displacement     0.059260     0.001200     NO 
 Predicted change in Energy=-1.099186D-02
 GradGradGradGradGradGradGradGradGradGradGradGradGradGradGradGradGradGrad

 1\1\GINC-CCWSGE1149\Force\RB2PLYP-FC\def2TZVPP\H2O1\ALLOUCHE\16-May-20
 19\0\\# B2PLYP/def2tzvpp nosym scf(tight) force Pop=NPA\\xPert\\0,1\H,
 0.,0.758568,-0.469403\H,0.,-0.758568,-0.669403\O,0.,0.,0.117351\\Versi
 on=EM64L-G09RevD.01\HF=-76.3135774\MP2=-76.3997511\RMSD=5.750e-09\RMSF
 =4.198e-02\Dipole=0.,0.0363402,-0.8239008\PG=CS [SG(H2O1)]\\@


 THE THINKER DIES, BUT HIS THOUGHTS ARE BEYOND THE 
 REACH OF DESTRUCTION.  MEN ARE MORTAL; BUT IDEAS 
 ARE IMMORTAL.
                              -- WALTER LIPPMANN
 Job cpu time:       0 days  0 hours  0 minutes 16.5 seconds.
 File lengths (MBytes):  RWF=      5 Int=      0 D2E=      0 Chk=      1 Scr=      1
 Normal termination of Gaussian 09 at Thu May 16 09:05:08 2019.
