 Entering Gaussian System, Link 0=/pbs/throng/ilm/sl6/allouche/Gaussian09D/g09/g09
 Initial command:
 /pbs/throng/ilm/sl6/allouche/Gaussian09D/g09/l1.exe "/scratch/6332029.1.long/Gau-98012.inp" -scrdir="/scratch/6332029.1.long/"
 Entering Link 1 = /pbs/throng/ilm/sl6/allouche/Gaussian09D/g09/l1.exe PID=     98013.
  
 Copyright (c) 1988,1990,1992,1993,1995,1998,2003,2009,2013,
            Gaussian, Inc.  All Rights Reserved.
  
 This is part of the Gaussian(R) 09 program.  It is based on
 the Gaussian(R) 03 system (copyright 2003, Gaussian, Inc.),
 the Gaussian(R) 98 system (copyright 1998, Gaussian, Inc.),
 the Gaussian(R) 94 system (copyright 1995, Gaussian, Inc.),
 the Gaussian 92(TM) system (copyright 1992, Gaussian, Inc.),
 the Gaussian 90(TM) system (copyright 1990, Gaussian, Inc.),
 the Gaussian 88(TM) system (copyright 1988, Gaussian, Inc.),
 the Gaussian 86(TM) system (copyright 1986, Carnegie Mellon
 University), and the Gaussian 82(TM) system (copyright 1983,
 Carnegie Mellon University). Gaussian is a federally registered
 trademark of Gaussian, Inc.
  
 This software contains proprietary and confidential information,
 including trade secrets, belonging to Gaussian, Inc.
  
 This software is provided under written license and may be
 used, copied, transmitted, or stored only in accord with that
 written license.
  
 The following legend is applicable only to US Government
 contracts under FAR:
  
                    RESTRICTED RIGHTS LEGEND
  
 Use, reproduction and disclosure by the US Government is
 subject to restrictions as set forth in subparagraphs (a)
 and (c) of the Commercial Computer Software - Restricted
 Rights clause in FAR 52.227-19.
  
 Gaussian, Inc.
 340 Quinnipiac St., Bldg. 40, Wallingford CT 06492
  
  
 ---------------------------------------------------------------
 Warning -- This program may not be used in any manner that
 competes with the business of Gaussian, Inc. or will provide
 assistance to any competitor of Gaussian, Inc.  The licensee
 of this program is prohibited from giving any competitor of
 Gaussian, Inc. access to this program.  By using this program,
 the user acknowledges that Gaussian, Inc. is engaged in the
 business of creating and licensing software in the field of
 computational chemistry and represents and warrants to the
 licensee that it is not a competitor of Gaussian, Inc. and that
 it will not use this program in any manner prohibited above.
 ---------------------------------------------------------------
  

 Cite this work as:
 Gaussian 09, Revision D.01,
 M. J. Frisch, G. W. Trucks, H. B. Schlegel, G. E. Scuseria, 
 M. A. Robb, J. R. Cheeseman, G. Scalmani, V. Barone, B. Mennucci, 
 G. A. Petersson, H. Nakatsuji, M. Caricato, X. Li, H. P. Hratchian, 
 A. F. Izmaylov, J. Bloino, G. Zheng, J. L. Sonnenberg, M. Hada, 
 M. Ehara, K. Toyota, R. Fukuda, J. Hasegawa, M. Ishida, T. Nakajima, 
 Y. Honda, O. Kitao, H. Nakai, T. Vreven, J. A. Montgomery, Jr., 
 J. E. Peralta, F. Ogliaro, M. Bearpark, J. J. Heyd, E. Brothers, 
 K. N. Kudin, V. N. Staroverov, T. Keith, R. Kobayashi, J. Normand, 
 K. Raghavachari, A. Rendell, J. C. Burant, S. S. Iyengar, J. Tomasi, 
 M. Cossi, N. Rega, J. M. Millam, M. Klene, J. E. Knox, J. B. Cross, 
 V. Bakken, C. Adamo, J. Jaramillo, R. Gomperts, R. E. Stratmann, 
 O. Yazyev, A. J. Austin, R. Cammi, C. Pomelli, J. W. Ochterski, 
 R. L. Martin, K. Morokuma, V. G. Zakrzewski, G. A. Voth, 
 P. Salvador, J. J. Dannenberg, S. Dapprich, A. D. Daniels, 
 O. Farkas, J. B. Foresman, J. V. Ortiz, J. Cioslowski, 
 and D. J. Fox, Gaussian, Inc., Wallingford CT, 2013.
 
 ******************************************
 Gaussian 09:  EM64L-G09RevD.01 24-Apr-2013
                16-May-2019 
 ******************************************
 -------------------------------------------------
 # B2PLYP/def2tzvpp nosym scf(tight) force Pop=NPA
 -------------------------------------------------
 1/10=7,30=1,38=1/1,3;
 2/12=2,15=1,17=6,18=5,40=1/2;
 3/5=44,7=202,11=9,16=1,25=1,30=1,71=1,74=-47/1,2,3;
 4//1;
 5/5=2,32=2,38=5/2;
 8/6=4,10=1/1;
 9/15=2,16=-3/6;
 10/5=1,31=1/2;
 6/7=2,8=2,9=2,10=2,18=1,40=-1/1,7;
 7/12=2,29=1,30=1/1,2,3,16;
 1/10=7,30=1/3;
 99//99;
 -----
 xPert
 -----
 Symbolic Z-matrix:
 Charge =  0 Multiplicity = 1
 H                     0.        0.75857  -0.4694 
 H                     0.2      -0.75857  -0.4694 
 O                     0.        0.        0.11735 
 

 GradGradGradGradGradGradGradGradGradGradGradGradGradGradGradGradGradGrad
 Berny optimization.
 Initialization pass.
 Trust Radius=3.00D-01 FncErr=1.00D-07 GrdErr=1.00D-07
 Number of steps in this run=      2 maximum allowed number of steps=      2.
 GradGradGradGradGradGradGradGradGradGradGradGradGradGradGradGradGradGrad

                          Input orientation:                          
 ---------------------------------------------------------------------
 Center     Atomic      Atomic             Coordinates (Angstroms)
 Number     Number       Type             X           Y           Z
 ---------------------------------------------------------------------
      1          1           0        0.000000    0.758568   -0.469403
      2          1           0        0.200000   -0.758568   -0.469403
      3          8           0        0.000000    0.000000    0.117351
 ---------------------------------------------------------------------
                    Distance matrix (angstroms):
                    1          2          3
     1  H    0.000000
     2  H    1.530262   0.000000
     3  O    0.959013   0.979646   0.000000
 Symmetry turned off by external request.
 Stoichiometry    H2O
 Framework group  CS[SG(H2O)]
 Deg. of freedom     3
 Full point group                 CS      NOp   2
 Rotational constants (GHZ):    797.7244173    428.0431564    278.5686984
 Standard basis: def2TZVPP (5D, 7F)
    59 basis functions,    85 primitive gaussians,    66 cartesian basis functions
     5 alpha electrons        5 beta electrons
       nuclear repulsion energy         9.0815337910 Hartrees.
 NAtoms=    3 NActive=    3 NUniq=    3 SFac= 1.00D+00 NAtFMM=   60 NAOKFM=F Big=F
 Integral buffers will be    131072 words long.
 Regular integral format.
 Two-electron integral symmetry is turned off.
 One-electron integrals computed using PRISM.
   1 Symmetry operations used in ECPInt.
 ECPInt:  NShTT=     276 NPrTT=     694 LenC2=     277 LenP2D=     681.
 LDataN:  DoStor=T MaxTD1= 6 Len=  172
 NBasis=    59 RedAO= T EigKep=  2.34D-03  NBF=    59
 NBsUse=    59 1.00D-06 EigRej= -1.00D+00 NBFU=    59
 ExpMin= 1.03D-01 ExpMax= 2.70D+04 ExpMxC= 9.22D+02 IAcc=1 IRadAn=         1 AccDes= 0.00D+00
 Harris functional with IExCor=  419 and IRadAn=       1 diagonalized for initial guess.
 HarFok:  IExCor=  419 AccDes= 0.00D+00 IRadAn=         1 IDoV= 1 UseB2=F ITyADJ=14
 ICtDFT=  3500011 ScaDFX=  1.000000  1.000000  1.000000  1.000000
 FoFCou: FMM=F IPFlag=           0 FMFlag=      100000 FMFlg1=           0
         NFxFlg=           0 DoJE=T BraDBF=F KetDBF=T FulRan=T
         wScrn=  0.000000 ICntrl=     500 IOpCl=  0 I1Cent=   200000004 NGrid=           0
         NMat0=    1 NMatS0=      1 NMatT0=    0 NMatD0=    1 NMtDS0=    0 NMtDT0=    0
 Symmetry not used in FoFCou.
 Keep R1 ints in memory in canonical form, NReq=3557635.
 Requested convergence on RMS density matrix=1.00D-08 within 128 cycles.
 Requested convergence on MAX density matrix=1.00D-06.
 Requested convergence on             energy=1.00D-06.
 No special actions if energy rises.
 Integral accuracy reduced to 1.0D-05 until final iterations.
 Initial convergence to 1.0D-05 achieved.  Increase integral accuracy.
 SCF Done:  E(RB2PLYP) =  -76.3290235770     A.U. after   10 cycles
            NFock= 10  Conv=0.42D-08     -V/T= 2.0030
 DoSCS=T DFT=T ScalE2(SS,OS)=  0.270000  0.270000
 ExpMin= 1.03D-01 ExpMax= 2.70D+04 ExpMxC= 9.22D+02 IAcc=3 IRadAn=         5 AccDes= 0.00D+00
 HarFok:  IExCor=  205 AccDes= 0.00D+00 IRadAn=         5 IDoV=-2 UseB2=F ITyADJ=14
 ICtDFT= 12500011 ScaDFX=  1.000000  1.000000  1.000000  1.000000
 Range of M.O.s used for correlation:     2    59
 NBasis=    59 NAE=     5 NBE=     5 NFC=     1 NFV=     0
 NROrb=     58 NOA=     4 NOB=     4 NVA=    54 NVB=    54
 DoSCS=T DFT=T ScalE2(SS,OS)=  0.270000  0.270000
 Fully direct method using O(ONN) memory.
 JobTyp=1 Pass  1:  I=   2 to   5 NPSUse=  1 ParTrn=F ParDer=F DoDerP=T.
 Spin components of T(2) and E(2):
     alpha-alpha T2 =       0.1177340530D-01 E2=     -0.1025882802D-01
     alpha-beta  T2 =       0.6853341228D-01 E2=     -0.6336179156D-01
     beta-beta   T2 =       0.1177340530D-01 E2=     -0.1025882802D-01
 E2(B2PLYP) =    -0.8387944759D-01 E(B2PLYP) =    -0.76412903024550D+02
          IDoAtm=111
          Differentiating once with respect to electric field.
                with respect to dipole field.
          Differentiating once with respect to nuclear coordinates.
 Keep R1 ints in memory in canonical form, NReq=3533351.
          There are     1 degrees of freedom in the 1st order CPHF.  IDoFFX=0 NUNeed=     1.
 LinEq1:  Iter=  0 NonCon=     1 RMS=1.93D-03 Max=1.58D-02 NDo=     1
 AX will form     1 AO Fock derivatives at one time.
 LinEq1:  Iter=  1 NonCon=     1 RMS=2.11D-04 Max=1.69D-03 NDo=     1
 LinEq1:  Iter=  2 NonCon=     1 RMS=5.95D-05 Max=4.97D-04 NDo=     1
 LinEq1:  Iter=  3 NonCon=     1 RMS=2.65D-05 Max=1.46D-04 NDo=     1
 LinEq1:  Iter=  4 NonCon=     1 RMS=6.25D-06 Max=3.59D-05 NDo=     1
 LinEq1:  Iter=  5 NonCon=     1 RMS=4.34D-07 Max=3.77D-06 NDo=     1
 LinEq1:  Iter=  6 NonCon=     1 RMS=7.09D-08 Max=5.65D-07 NDo=     1
 LinEq1:  Iter=  7 NonCon=     1 RMS=1.44D-08 Max=9.00D-08 NDo=     1
 LinEq1:  Iter=  8 NonCon=     1 RMS=1.95D-09 Max=1.56D-08 NDo=     1
 LinEq1:  Iter=  9 NonCon=     0 RMS=9.14D-11 Max=6.20D-10 NDo=     1
 Linear equations converged to 1.000D-10 1.000D-09 after     9 iterations.
 End of Minotr F.D. properties file   721 does not exist.
 End of Minotr F.D. properties file   722 does not exist.
 End of Minotr F.D. properties file   788 does not exist.

 **********************************************************************

            Population analysis using the SCF density.

 **********************************************************************

 Alpha  occ. eigenvalues --  -19.72725  -1.14856  -0.60382  -0.47008  -0.39539
 Alpha virt. eigenvalues --    0.05874   0.13392   0.42115   0.46276   0.48281
 Alpha virt. eigenvalues --    0.49450   0.60510   0.62580   0.71406   0.74809
 Alpha virt. eigenvalues --    0.83972   1.07369   1.24035   1.30065   1.81483
 Alpha virt. eigenvalues --    1.85853   1.89363   1.92986   1.98764   2.21587
 Alpha virt. eigenvalues --    2.51032   2.70470   2.86115   3.17758   3.27810
 Alpha virt. eigenvalues --    3.38762   3.38786   3.42269   3.47977   3.65709
 Alpha virt. eigenvalues --    3.70005   3.76399   3.76784   4.10257   4.20578
 Alpha virt. eigenvalues --    4.21202   4.26742   4.70821   4.76651   4.90954
 Alpha virt. eigenvalues --    5.08759   5.75985   6.28222   6.55292   6.61655
 Alpha virt. eigenvalues --    6.69261   6.70824   6.79513   6.93905   7.05125
 Alpha virt. eigenvalues --    7.53806   7.56719   7.78425  44.11769
          Condensed to atoms (all electrons):
               1          2          3
     1  H    0.479880  -0.027189   0.335441
     2  H   -0.027189   0.475226   0.330112
     3  O    0.335441   0.330112   7.768166
 Mulliken charges:
               1
     1  H    0.211868
     2  H    0.221851
     3  O   -0.433719
 Sum of Mulliken charges =   0.00000
 Mulliken charges with hydrogens summed into heavy atoms:
               1
     3  O    0.000000
 Electronic spatial extent (au):  <R**2>=             19.6088
 Charge=              0.0000 electrons
 Dipole moment (field-independent basis, Debye):
    X=              0.3358    Y=              0.0122    Z=             -1.9795  Tot=              2.0078
 Quadrupole moment (field-independent basis, Debye-Ang):
   XX=             -7.3897   YY=             -4.3493   ZZ=             -6.2698
   XY=             -0.4115   XZ=             -0.2459   YZ=             -0.0157
 Traceless Quadrupole moment (field-independent basis, Debye-Ang):
   XX=             -1.3867   YY=              1.6536   ZZ=             -0.2669
   XY=             -0.4115   XZ=             -0.2459   YZ=             -0.0157
 Octapole moment (field-independent basis, Debye-Ang**2):
  XXX=             -0.2889  YYY=              0.0347  ZZZ=             -1.1662  XYY=              0.1378
  XXY=             -0.0501  XXZ=             -0.3277  XZZ=             -0.0276  YZZ=              0.0108
  YYZ=             -1.3258  XYZ=              0.1363
 Hexadecapole moment (field-independent basis, Debye-Ang**3):
 XXXX=             -6.3087 YYYY=             -6.2191 ZZZZ=             -7.0804 XXXY=              0.1117
 XXXZ=              0.0756 YYYX=             -0.1189 YYYZ=             -0.0292 ZZZX=              0.0248
 ZZZY=             -0.0292 XXYY=             -2.3393 XXZZ=             -2.2622 YYZZ=             -1.8795
 XXYZ=              0.0282 YYXZ=             -0.1116 ZZXY=             -0.0497
 N-N= 9.081533790990D+00 E-N=-1.990187207290D+02  KE= 7.610020896609D+01
 ******************************Gaussian NBO Version 3.1******************************
             N A T U R A L   A T O M I C   O R B I T A L   A N D
          N A T U R A L   B O N D   O R B I T A L   A N A L Y S I S
 ******************************Gaussian NBO Version 3.1******************************
       /RESON  / : Allow strongly delocalized NBO set

 Analyzing the SCF density

 Job title: xPert                                                           

 Storage needed:     10799 in NPA ( 536870849 available)


 NATURAL POPULATIONS:  Natural atomic orbital occupancies 
                                                          
   NAO  Atom  No  lang   Type(AO)    Occupancy      Energy
 ----------------------------------------------------------
     1    H    1  S      Val( 1S)     0.53636       0.16998
     2    H    1  S      Ryd( 2S)     0.00149       0.80918
     3    H    1  S      Ryd( 3S)     0.00010       1.72381
     4    H    1  px     Ryd( 2p)     0.00203       1.68354
     5    H    1  px     Ryd( 3p)     0.00000       3.48954
     6    H    1  py     Ryd( 2p)     0.00031       2.40283
     7    H    1  py     Ryd( 3p)     0.00064       3.76748
     8    H    1  pz     Ryd( 2p)     0.00133       2.08516
     9    H    1  pz     Ryd( 3p)     0.00057       3.66546
    10    H    1  dxy    Ryd( 3d)     0.00002       3.85448
    11    H    1  dxz    Ryd( 3d)     0.00001       3.68102
    12    H    1  dyz    Ryd( 3d)     0.00003       4.17298
    13    H    1  dx2y2  Ryd( 3d)     0.00010       3.93166
    14    H    1  dz2    Ryd( 3d)     0.00002       3.91015

    15    H    2  S      Val( 1S)     0.53532       0.14372
    16    H    2  S      Ryd( 2S)     0.00147       0.78849
    17    H    2  S      Ryd( 3S)     0.00009       1.77159
    18    H    2  px     Ryd( 2p)     0.00194       1.67368
    19    H    2  px     Ryd( 3p)     0.00005       3.49791
    20    H    2  py     Ryd( 2p)     0.00035       2.34337
    21    H    2  py     Ryd( 3p)     0.00055       3.77195
    22    H    2  pz     Ryd( 2p)     0.00133       2.02837
    23    H    2  pz     Ryd( 3p)     0.00052       3.66494
    24    H    2  dxy    Ryd( 3d)     0.00002       3.85080
    25    H    2  dxz    Ryd( 3d)     0.00001       3.68614
    26    H    2  dyz    Ryd( 3d)     0.00002       4.11700
    27    H    2  dx2y2  Ryd( 3d)     0.00009       3.92249
    28    H    2  dz2    Ryd( 3d)     0.00002       3.88591

    29    O    3  S      Cor( 1S)     1.99986     -19.51084
    30    O    3  S      Val( 2S)     1.75154      -1.06567
    31    O    3  S      Ryd( 3S)     0.00053       2.23723
    32    O    3  S      Ryd( 4S)     0.00000       4.08435
    33    O    3  S      Ryd( 5S)     0.00000      41.81147
    34    O    3  px     Val( 2p)     1.97504      -0.38690
    35    O    3  px     Ryd( 3p)     0.00116       0.60241
    36    O    3  px     Ryd( 4p)     0.00000       2.71362
    37    O    3  py     Val( 2p)     1.46134      -0.30254
    38    O    3  py     Ryd( 3p)     0.00266       0.67782
    39    O    3  py     Ryd( 4p)     0.00001       3.32334
    40    O    3  pz     Val( 2p)     1.71430      -0.34842
    41    O    3  pz     Ryd( 3p)     0.00032       0.64302
    42    O    3  pz     Ryd( 4p)     0.00016       3.04600
    43    O    3  dxy    Ryd( 3d)     0.00011       2.36322
    44    O    3  dxy    Ryd( 4d)     0.00000       6.53691
    45    O    3  dxz    Ryd( 3d)     0.00243       2.20505
    46    O    3  dxz    Ryd( 4d)     0.00003       6.51241
    47    O    3  dyz    Ryd( 3d)     0.00185       3.38994
    48    O    3  dyz    Ryd( 4d)     0.00016       7.03193
    49    O    3  dx2y2  Ryd( 3d)     0.00083       2.65942
    50    O    3  dx2y2  Ryd( 4d)     0.00001       6.67198
    51    O    3  dz2    Ryd( 3d)     0.00247       2.44531
    52    O    3  dz2    Ryd( 4d)     0.00003       6.59308
    53    O    3  f(0)   Ryd( 4f)     0.00002       5.90326
    54    O    3  f(C1)  Ryd( 4f)     0.00002       5.58842
    55    O    3  f(S1)  Ryd( 4f)     0.00002       6.34773
    56    O    3  f(C2)  Ryd( 4f)     0.00008       6.25548
    57    O    3  f(S2)  Ryd( 4f)     0.00001       6.06333
    58    O    3  f(C3)  Ryd( 4f)     0.00016       5.86277
    59    O    3  f(S3)  Ryd( 4f)     0.00006       5.87124

 WARNING:  Population inversion found on atom  H    1
           Population inversion found on atom  H    2


 Summary of Natural Population Analysis:                  
                                                          
                                       Natural Population 
                Natural  -----------------------------------------------
    Atom  No    Charge         Core      Valence    Rydberg      Total
 -----------------------------------------------------------------------
      H    1    0.45700      0.00000     0.53636    0.00664     0.54300
      H    2    0.45822      0.00000     0.53532    0.00646     0.54178
      O    3   -0.91521      1.99986     6.90222    0.01313     8.91521
 =======================================================================
   * Total *    0.00000      1.99986     7.97390    0.02624    10.00000

                                 Natural Population      
 --------------------------------------------------------
   Core                       1.99986 ( 99.9931% of   2)
   Valence                    7.97390 ( 99.6738% of   8)
   Natural Minimal Basis      9.97376 ( 99.7376% of  10)
   Natural Rydberg Basis      0.02624 (  0.2624% of  10)
 --------------------------------------------------------

    Atom  No          Natural Electron Configuration
 ----------------------------------------------------------------------------
      H    1            1S( 0.54)
      H    2            1S( 0.54)
      O    3      [core]2S( 1.75)2p( 5.15)3d( 0.01)


 NBO analysis skipped by request.
   1 Symmetry operations used in ECPInt.
 ECPInt:  NShTT=     276 NPrTT=     694 LenC2=     277 LenP2D=     681.
 LDataN:  DoStor=T MaxTD1= 7 Len=  274
 Calling FoFJK, ICntrl=  10002127 FMM=F ISym2X=0 I1Cent= 0 IOpClX= 0 NMat=1 NMatS=1 NMatT=0.
 -------------------------------------------------------------------
 Center     Atomic                   Forces (Hartrees/Bohr)
 Number     Number              X              Y              Z
 -------------------------------------------------------------------
      1        1           0.000038856    0.000216892   -0.000400024
      2        1          -0.003986097    0.015277932    0.011583708
      3        8           0.003947241   -0.015494823   -0.011183684
 -------------------------------------------------------------------
 Cartesian Forces:  Max     0.015494823 RMS     0.009216170

 GradGradGradGradGradGradGradGradGradGradGradGradGradGradGradGradGradGrad
 Berny optimization.
 Search for a local minimum.
 Step number   1 out of a maximum of    2
 All quantities printed in internal units (Hartrees-Bohrs-Radians)
 Second derivative matrix not updated -- first step.
 The second derivative matrix:
                          X1        Y1        Z1        X2        Y2
           X1           0.00216
           Y1          -0.00614   0.36584
           Z1          -0.00793  -0.24696   0.23758
           X2           0.00052  -0.00148  -0.00191   0.02157
           Y2           0.00622  -0.01767  -0.02285  -0.07984   0.32643
           Z2          -0.00787   0.02234   0.02888  -0.06481   0.21598
           X3          -0.00268   0.00762   0.00985  -0.02209   0.07362
           Y3          -0.00009  -0.34816   0.26981   0.08132  -0.30876
           Z3           0.01580   0.22462  -0.26647   0.06672  -0.19313
                          Z2        X3        Y3        Z3
           Z2           0.21322
           X3           0.07268   0.02477
           Y3          -0.23832  -0.08123   0.65692
           Z3          -0.24211  -0.08252  -0.03149   0.50857
 ITU=  0
     Eigenvalues ---    0.14238   0.82800   0.97055
 Angle between quadratic step and forces=  31.98 degrees.
 Linear search not attempted -- first point.
 TrRot=  0.001144 -0.005576 -0.002397 -1.439554  0.002025  1.439896
 Variable       Old X    -DE/DX   Delta X   Delta X   Delta X     New X
                                 (Linear)    (Quad)   (Total)
    X1        0.00000   0.00004   0.00000   0.00111   0.00153   0.00153
    Y1        1.43349   0.00022   0.00000  -0.00527  -0.00906   1.42443
    Z1       -0.88704  -0.00040   0.00000  -0.00246  -0.00199  -0.88903
    X2        0.37795  -0.00399   0.00000  -0.00578  -0.00439   0.37356
    Y2       -1.43349   0.01528   0.00000   0.02615   0.02245  -1.41103
    Z2       -0.88704   0.01158   0.00000   0.01369   0.00837  -0.87867
    X3        0.00000   0.00395   0.00000   0.00165   0.00285   0.00285
    Y3        0.00000  -0.01549   0.00000  -0.00738  -0.01339  -0.01339
    Z3        0.22176  -0.01118   0.00000  -0.00397  -0.00638   0.21538
         Item               Value     Threshold  Converged?
 Maximum Force            0.015495     0.000450     NO 
 RMS     Force            0.009216     0.000300     NO 
 Maximum Displacement     0.022455     0.001800     NO 
 RMS     Displacement     0.010057     0.001200     NO 
 Predicted change in Energy=-3.731513D-04
 GradGradGradGradGradGradGradGradGradGradGradGradGradGradGradGradGradGrad

 1\1\GINC-CCWSGE0295\Force\RB2PLYP-FC\def2TZVPP\H2O1\ALLOUCHE\16-May-20
 19\0\\# B2PLYP/def2tzvpp nosym scf(tight) force Pop=NPA\\xPert\\0,1\H,
 0.,0.758568,-0.469403\H,0.2,-0.758568,-0.469403\O,0.,0.,0.117351\\Vers
 ion=EM64L-G09RevD.01\HF=-76.3290236\MP2=-76.412903\RMSD=4.247e-09\RMSF
 =9.216e-03\Dipole=0.1288501,0.0049203,-0.7598489\PG=CS [SG(H2O1)]\\@


     "IF I COULD JUST GET IT ON PAPER"
 LIFE AND INK, THEY RUN OUT AT THE SAME TIME,
 OR SO SAID MY OLD FRIEND THE SQUID.
     -- JIMMY BUFFETT, 1981
 Job cpu time:       0 days  0 hours  0 minutes 14.7 seconds.
 File lengths (MBytes):  RWF=      5 Int=      0 D2E=      0 Chk=      1 Scr=      1
 Normal termination of Gaussian 09 at Thu May 16 09:05:14 2019.
