 Entering Gaussian System, Link 0=/pbs/throng/ilm/sl6/allouche/Gaussian09D/g09/g09
 Initial command:
 /pbs/throng/ilm/sl6/allouche/Gaussian09D/g09/l1.exe "/scratch/6332030.1.long/Gau-352248.inp" -scrdir="/scratch/6332030.1.long/"
 Entering Link 1 = /pbs/throng/ilm/sl6/allouche/Gaussian09D/g09/l1.exe PID=    352253.
  
 Copyright (c) 1988,1990,1992,1993,1995,1998,2003,2009,2013,
            Gaussian, Inc.  All Rights Reserved.
  
 This is part of the Gaussian(R) 09 program.  It is based on
 the Gaussian(R) 03 system (copyright 2003, Gaussian, Inc.),
 the Gaussian(R) 98 system (copyright 1998, Gaussian, Inc.),
 the Gaussian(R) 94 system (copyright 1995, Gaussian, Inc.),
 the Gaussian 92(TM) system (copyright 1992, Gaussian, Inc.),
 the Gaussian 90(TM) system (copyright 1990, Gaussian, Inc.),
 the Gaussian 88(TM) system (copyright 1988, Gaussian, Inc.),
 the Gaussian 86(TM) system (copyright 1986, Carnegie Mellon
 University), and the Gaussian 82(TM) system (copyright 1983,
 Carnegie Mellon University). Gaussian is a federally registered
 trademark of Gaussian, Inc.
  
 This software contains proprietary and confidential information,
 including trade secrets, belonging to Gaussian, Inc.
  
 This software is provided under written license and may be
 used, copied, transmitted, or stored only in accord with that
 written license.
  
 The following legend is applicable only to US Government
 contracts under FAR:
  
                    RESTRICTED RIGHTS LEGEND
  
 Use, reproduction and disclosure by the US Government is
 subject to restrictions as set forth in subparagraphs (a)
 and (c) of the Commercial Computer Software - Restricted
 Rights clause in FAR 52.227-19.
  
 Gaussian, Inc.
 340 Quinnipiac St., Bldg. 40, Wallingford CT 06492
  
  
 ---------------------------------------------------------------
 Warning -- This program may not be used in any manner that
 competes with the business of Gaussian, Inc. or will provide
 assistance to any competitor of Gaussian, Inc.  The licensee
 of this program is prohibited from giving any competitor of
 Gaussian, Inc. access to this program.  By using this program,
 the user acknowledges that Gaussian, Inc. is engaged in the
 business of creating and licensing software in the field of
 computational chemistry and represents and warrants to the
 licensee that it is not a competitor of Gaussian, Inc. and that
 it will not use this program in any manner prohibited above.
 ---------------------------------------------------------------
  

 Cite this work as:
 Gaussian 09, Revision D.01,
 M. J. Frisch, G. W. Trucks, H. B. Schlegel, G. E. Scuseria, 
 M. A. Robb, J. R. Cheeseman, G. Scalmani, V. Barone, B. Mennucci, 
 G. A. Petersson, H. Nakatsuji, M. Caricato, X. Li, H. P. Hratchian, 
 A. F. Izmaylov, J. Bloino, G. Zheng, J. L. Sonnenberg, M. Hada, 
 M. Ehara, K. Toyota, R. Fukuda, J. Hasegawa, M. Ishida, T. Nakajima, 
 Y. Honda, O. Kitao, H. Nakai, T. Vreven, J. A. Montgomery, Jr., 
 J. E. Peralta, F. Ogliaro, M. Bearpark, J. J. Heyd, E. Brothers, 
 K. N. Kudin, V. N. Staroverov, T. Keith, R. Kobayashi, J. Normand, 
 K. Raghavachari, A. Rendell, J. C. Burant, S. S. Iyengar, J. Tomasi, 
 M. Cossi, N. Rega, J. M. Millam, M. Klene, J. E. Knox, J. B. Cross, 
 V. Bakken, C. Adamo, J. Jaramillo, R. Gomperts, R. E. Stratmann, 
 O. Yazyev, A. J. Austin, R. Cammi, C. Pomelli, J. W. Ochterski, 
 R. L. Martin, K. Morokuma, V. G. Zakrzewski, G. A. Voth, 
 P. Salvador, J. J. Dannenberg, S. Dapprich, A. D. Daniels, 
 O. Farkas, J. B. Foresman, J. V. Ortiz, J. Cioslowski, 
 and D. J. Fox, Gaussian, Inc., Wallingford CT, 2013.
 
 ******************************************
 Gaussian 09:  EM64L-G09RevD.01 24-Apr-2013
                16-May-2019 
 ******************************************
 -------------------------------------------------
 # B2PLYP/def2tzvpp nosym scf(tight) force Pop=NPA
 -------------------------------------------------
 1/10=7,30=1,38=1/1,3;
 2/12=2,15=1,17=6,18=5,40=1/2;
 3/5=44,7=202,11=9,16=1,25=1,30=1,71=1,74=-47/1,2,3;
 4//1;
 5/5=2,32=2,38=5/2;
 8/6=4,10=1/1;
 9/15=2,16=-3/6;
 10/5=1,31=1/2;
 6/7=2,8=2,9=2,10=2,18=1,40=-1/1,7;
 7/12=2,29=1,30=1/1,2,3,16;
 1/10=7,30=1/3;
 99//99;
 -----
 xPert
 -----
 Symbolic Z-matrix:
 Charge =  0 Multiplicity = 1
 H                     0.        0.75857  -0.4694 
 H                     0.       -0.75857  -0.4694 
 O                     0.2       0.        0.11735 
 

 GradGradGradGradGradGradGradGradGradGradGradGradGradGradGradGradGradGrad
 Berny optimization.
 Initialization pass.
 Trust Radius=3.00D-01 FncErr=1.00D-07 GrdErr=1.00D-07
 Number of steps in this run=      2 maximum allowed number of steps=      2.
 GradGradGradGradGradGradGradGradGradGradGradGradGradGradGradGradGradGrad

                          Input orientation:                          
 ---------------------------------------------------------------------
 Center     Atomic      Atomic             Coordinates (Angstroms)
 Number     Number       Type             X           Y           Z
 ---------------------------------------------------------------------
      1          1           0        0.000000    0.758568   -0.469403
      2          1           0        0.000000   -0.758568   -0.469403
      3          8           0        0.200000    0.000000    0.117351
 ---------------------------------------------------------------------
                    Distance matrix (angstroms):
                    1          2          3
     1  H    0.000000
     2  H    1.517136   0.000000
     3  O    0.979646   0.979646   0.000000
 Symmetry turned off by external request.
 Stoichiometry    H2O
 Framework group  C2V[C2(O),SGV(H2)]
 Deg. of freedom     2
 Full point group                 C2V     NOp   4
 Rotational constants (GHZ):    734.6819816    435.7255441    273.5113190
 Standard basis: def2TZVPP (5D, 7F)
    59 basis functions,    85 primitive gaussians,    66 cartesian basis functions
     5 alpha electrons        5 beta electrons
       nuclear repulsion energy         8.9915527650 Hartrees.
 NAtoms=    3 NActive=    3 NUniq=    3 SFac= 1.00D+00 NAtFMM=   60 NAOKFM=F Big=F
 Integral buffers will be    131072 words long.
 Regular integral format.
 Two-electron integral symmetry is turned off.
 One-electron integrals computed using PRISM.
   1 Symmetry operations used in ECPInt.
 ECPInt:  NShTT=     276 NPrTT=     694 LenC2=     277 LenP2D=     681.
 LDataN:  DoStor=T MaxTD1= 6 Len=  172
 NBasis=    59 RedAO= T EigKep=  2.47D-03  NBF=    59
 NBsUse=    59 1.00D-06 EigRej= -1.00D+00 NBFU=    59
 ExpMin= 1.03D-01 ExpMax= 2.70D+04 ExpMxC= 9.22D+02 IAcc=1 IRadAn=         1 AccDes= 0.00D+00
 Harris functional with IExCor=  419 and IRadAn=       1 diagonalized for initial guess.
 HarFok:  IExCor=  419 AccDes= 0.00D+00 IRadAn=         1 IDoV= 1 UseB2=F ITyADJ=14
 ICtDFT=  3500011 ScaDFX=  1.000000  1.000000  1.000000  1.000000
 FoFCou: FMM=F IPFlag=           0 FMFlag=      100000 FMFlg1=           0
         NFxFlg=           0 DoJE=T BraDBF=F KetDBF=T FulRan=T
         wScrn=  0.000000 ICntrl=     500 IOpCl=  0 I1Cent=   200000004 NGrid=           0
         NMat0=    1 NMatS0=      1 NMatT0=    0 NMatD0=    1 NMtDS0=    0 NMtDT0=    0
 Symmetry not used in FoFCou.
 Keep R1 ints in memory in canonical form, NReq=3557621.
 Requested convergence on RMS density matrix=1.00D-08 within 128 cycles.
 Requested convergence on MAX density matrix=1.00D-06.
 Requested convergence on             energy=1.00D-06.
 No special actions if energy rises.
 Integral accuracy reduced to 1.0D-05 until final iterations.
 Initial convergence to 1.0D-05 achieved.  Increase integral accuracy.
 SCF Done:  E(RB2PLYP) =  -76.3280820471     A.U. after   10 cycles
            NFock= 10  Conv=0.48D-08     -V/T= 2.0034
 DoSCS=T DFT=T ScalE2(SS,OS)=  0.270000  0.270000
 ExpMin= 1.03D-01 ExpMax= 2.70D+04 ExpMxC= 9.22D+02 IAcc=3 IRadAn=         5 AccDes= 0.00D+00
 HarFok:  IExCor=  205 AccDes= 0.00D+00 IRadAn=         5 IDoV=-2 UseB2=F ITyADJ=14
 ICtDFT= 12500011 ScaDFX=  1.000000  1.000000  1.000000  1.000000
 Range of M.O.s used for correlation:     2    59
 NBasis=    59 NAE=     5 NBE=     5 NFC=     1 NFV=     0
 NROrb=     58 NOA=     4 NOB=     4 NVA=    54 NVB=    54
 DoSCS=T DFT=T ScalE2(SS,OS)=  0.270000  0.270000
 Fully direct method using O(ONN) memory.
 JobTyp=1 Pass  1:  I=   2 to   5 NPSUse=  1 ParTrn=F ParDer=F DoDerP=T.
 Spin components of T(2) and E(2):
     alpha-alpha T2 =       0.1195941245D-01 E2=     -0.1031234462D-01
     alpha-beta  T2 =       0.6975915211D-01 E2=     -0.6370477246D-01
     beta-beta   T2 =       0.1195941245D-01 E2=     -0.1031234462D-01
 E2(B2PLYP) =    -0.8432946171D-01 E(B2PLYP) =    -0.76412411508757D+02
          IDoAtm=111
          Differentiating once with respect to electric field.
                with respect to dipole field.
          Differentiating once with respect to nuclear coordinates.
 Keep R1 ints in memory in canonical form, NReq=3533351.
          There are     1 degrees of freedom in the 1st order CPHF.  IDoFFX=0 NUNeed=     1.
 LinEq1:  Iter=  0 NonCon=     1 RMS=1.98D-03 Max=1.62D-02 NDo=     1
 AX will form     1 AO Fock derivatives at one time.
 LinEq1:  Iter=  1 NonCon=     1 RMS=2.23D-04 Max=1.80D-03 NDo=     1
 LinEq1:  Iter=  2 NonCon=     1 RMS=6.23D-05 Max=5.32D-04 NDo=     1
 LinEq1:  Iter=  3 NonCon=     1 RMS=2.85D-05 Max=1.55D-04 NDo=     1
 LinEq1:  Iter=  4 NonCon=     1 RMS=6.88D-06 Max=4.15D-05 NDo=     1
 LinEq1:  Iter=  5 NonCon=     1 RMS=4.89D-07 Max=4.25D-06 NDo=     1
 LinEq1:  Iter=  6 NonCon=     1 RMS=6.65D-08 Max=5.65D-07 NDo=     1
 LinEq1:  Iter=  7 NonCon=     1 RMS=4.99D-09 Max=4.19D-08 NDo=     1
 LinEq1:  Iter=  8 NonCon=     1 RMS=2.12D-10 Max=1.16D-09 NDo=     1
 LinEq1:  Iter=  9 NonCon=     0 RMS=1.29D-11 Max=7.56D-11 NDo=     1
 Linear equations converged to 1.000D-10 1.000D-09 after     9 iterations.
 End of Minotr F.D. properties file   721 does not exist.
 End of Minotr F.D. properties file   722 does not exist.
 End of Minotr F.D. properties file   788 does not exist.

 **********************************************************************

            Population analysis using the SCF density.

 **********************************************************************

 Alpha  occ. eigenvalues --  -19.73010  -1.14576  -0.59425  -0.47404  -0.39531
 Alpha virt. eigenvalues --    0.05691   0.13270   0.41399   0.46463   0.48318
 Alpha virt. eigenvalues --    0.49467   0.60356   0.62755   0.69717   0.75187
 Alpha virt. eigenvalues --    0.82690   1.07568   1.24208   1.28899   1.83196
 Alpha virt. eigenvalues --    1.86710   1.88297   1.94578   1.99288   2.19421
 Alpha virt. eigenvalues --    2.51471   2.70084   2.85865   3.15315   3.25684
 Alpha virt. eigenvalues --    3.38443   3.39682   3.40323   3.46471   3.65744
 Alpha virt. eigenvalues --    3.70337   3.76302   3.76567   4.07955   4.16961
 Alpha virt. eigenvalues --    4.18758   4.27057   4.70055   4.73165   4.89801
 Alpha virt. eigenvalues --    5.08682   5.75009   6.30773   6.52209   6.58090
 Alpha virt. eigenvalues --    6.60133   6.71468   6.80755   6.92293   7.01294
 Alpha virt. eigenvalues --    7.54002   7.54884   7.72002  44.07894
          Condensed to atoms (all electrons):
               1          2          3
     1  H    0.482436  -0.026055   0.325538
     2  H   -0.026055   0.482436   0.325538
     3  O    0.325538   0.325538   7.785085
 Mulliken charges:
               1
     1  H    0.218080
     2  H    0.218080
     3  O   -0.436161
 Sum of Mulliken charges =   0.00000
 Mulliken charges with hydrogens summed into heavy atoms:
               1
     3  O    0.000000
 Electronic spatial extent (au):  <R**2>=             20.8107
 Charge=              0.0000 electrons
 Dipole moment (field-independent basis, Debye):
    X=             -0.6631    Y=              0.0000    Z=             -1.9455  Tot=              2.0554
 Quadrupole moment (field-independent basis, Debye-Ang):
   XX=             -7.5827   YY=             -4.3985   ZZ=             -6.2992
   XY=              0.0000   XZ=              0.1019   YZ=              0.0000
 Traceless Quadrupole moment (field-independent basis, Debye-Ang):
   XX=             -1.4892   YY=              1.6950   ZZ=             -0.2058
   XY=              0.0000   XZ=              0.1019   YZ=              0.0000
 Octapole moment (field-independent basis, Debye-Ang**2):
  XXX=             -3.8857  YYY=              0.0000  ZZZ=             -1.1311  XYY=             -1.1482
  XXY=              0.0000  XXZ=             -0.2307  XZZ=             -1.2033  YZZ=              0.0000
  YYZ=             -1.3039  XYZ=              0.0000
 Hexadecapole moment (field-independent basis, Debye-Ang**3):
 XXXX=             -7.7264 YYYY=             -6.3571 ZZZZ=             -7.1370 XXXY=              0.0000
 XXXZ=             -0.3181 YYYX=              0.0000 YYYZ=              0.0000 ZZZX=             -0.2761
 ZZZY=              0.0000 XXYY=             -2.6076 XXZZ=             -2.4957 YYZZ=             -1.9120
 XXYZ=              0.0000 YYXZ=             -0.0386 ZZXY=              0.0000
 N-N= 8.991552765022D+00 E-N=-1.988193537753D+02  KE= 7.606825258806D+01
 ******************************Gaussian NBO Version 3.1******************************
             N A T U R A L   A T O M I C   O R B I T A L   A N D
          N A T U R A L   B O N D   O R B I T A L   A N A L Y S I S
 ******************************Gaussian NBO Version 3.1******************************
       /RESON  / : Allow strongly delocalized NBO set

 Analyzing the SCF density

 Job title: xPert                                                           

 Storage needed:     10799 in NPA ( 536870849 available)


 NATURAL POPULATIONS:  Natural atomic orbital occupancies 
                                                          
   NAO  Atom  No  lang   Type(AO)    Occupancy      Energy
 ----------------------------------------------------------
     1    H    1  S      Val( 1S)     0.53733       0.14350
     2    H    1  S      Ryd( 2S)     0.00152       0.78669
     3    H    1  S      Ryd( 3S)     0.00008       1.77606
     4    H    1  px     Ryd( 2p)     0.00201       1.65505
     5    H    1  px     Ryd( 3p)     0.00006       3.51918
     6    H    1  py     Ryd( 2p)     0.00036       2.32847
     7    H    1  py     Ryd( 3p)     0.00055       3.80038
     8    H    1  pz     Ryd( 2p)     0.00141       2.00821
     9    H    1  pz     Ryd( 3p)     0.00052       3.67390
    10    H    1  dxy    Ryd( 3d)     0.00002       3.84903
    11    H    1  dxz    Ryd( 3d)     0.00002       3.69080
    12    H    1  dyz    Ryd( 3d)     0.00003       4.11529
    13    H    1  dx2y2  Ryd( 3d)     0.00010       3.93253
    14    H    1  dz2    Ryd( 3d)     0.00001       3.88545

    15    H    2  S      Val( 1S)     0.53733       0.14350
    16    H    2  S      Ryd( 2S)     0.00152       0.78669
    17    H    2  S      Ryd( 3S)     0.00008       1.77606
    18    H    2  px     Ryd( 2p)     0.00201       1.65505
    19    H    2  px     Ryd( 3p)     0.00006       3.51918
    20    H    2  py     Ryd( 2p)     0.00036       2.32847
    21    H    2  py     Ryd( 3p)     0.00055       3.80038
    22    H    2  pz     Ryd( 2p)     0.00141       2.00821
    23    H    2  pz     Ryd( 3p)     0.00052       3.67390
    24    H    2  dxy    Ryd( 3d)     0.00002       3.84903
    25    H    2  dxz    Ryd( 3d)     0.00002       3.69080
    26    H    2  dyz    Ryd( 3d)     0.00003       4.11529
    27    H    2  dx2y2  Ryd( 3d)     0.00010       3.93253
    28    H    2  dz2    Ryd( 3d)     0.00001       3.88545

    29    O    3  S      Cor( 1S)     1.99987     -19.51572
    30    O    3  S      Val( 2S)     1.76240      -1.07170
    31    O    3  S      Ryd( 3S)     0.00058       2.13548
    32    O    3  S      Ryd( 5S)     0.00000      40.96745
    33    O    3  S      Ryd( 4S)     0.00000       4.98220
    34    O    3  px     Val( 2p)     1.96056      -0.38483
    35    O    3  px     Ryd( 3p)     0.00101       0.60056
    36    O    3  px     Ryd( 4p)     0.00002       2.73770
    37    O    3  py     Val( 2p)     1.45475      -0.30226
    38    O    3  py     Ryd( 3p)     0.00246       0.66786
    39    O    3  py     Ryd( 4p)     0.00001       3.30663
    40    O    3  pz     Val( 2p)     1.72139      -0.34974
    41    O    3  pz     Ryd( 3p)     0.00033       0.63674
    42    O    3  pz     Ryd( 4p)     0.00016       3.03123
    43    O    3  dxy    Ryd( 3d)     0.00021       2.39079
    44    O    3  dxy    Ryd( 4d)     0.00002       6.56370
    45    O    3  dxz    Ryd( 3d)     0.00256       2.23711
    46    O    3  dxz    Ryd( 4d)     0.00003       6.54333
    47    O    3  dyz    Ryd( 3d)     0.00176       3.27895
    48    O    3  dyz    Ryd( 4d)     0.00015       6.99881
    49    O    3  dx2y2  Ryd( 3d)     0.00087       2.59504
    50    O    3  dx2y2  Ryd( 4d)     0.00001       6.65391
    51    O    3  dz2    Ryd( 3d)     0.00242       2.40501
    52    O    3  dz2    Ryd( 4d)     0.00003       6.57954
    53    O    3  f(0)   Ryd( 4f)     0.00002       5.87119
    54    O    3  f(C1)  Ryd( 4f)     0.00003       5.61288
    55    O    3  f(S1)  Ryd( 4f)     0.00002       6.28786
    56    O    3  f(C2)  Ryd( 4f)     0.00010       6.20486
    57    O    3  f(S2)  Ryd( 4f)     0.00000       6.08037
    58    O    3  f(C3)  Ryd( 4f)     0.00014       5.86117
    59    O    3  f(S3)  Ryd( 4f)     0.00004       5.85538

 WARNING:  Population inversion found on atom  H    1
           Population inversion found on atom  H    2


 Summary of Natural Population Analysis:                  
                                                          
                                       Natural Population 
                Natural  -----------------------------------------------
    Atom  No    Charge         Core      Valence    Rydberg      Total
 -----------------------------------------------------------------------
      H    1    0.45597      0.00000     0.53733    0.00670     0.54403
      H    2    0.45597      0.00000     0.53733    0.00670     0.54403
      O    3   -0.91194      1.99987     6.89910    0.01296     8.91194
 =======================================================================
   * Total *    0.00000      1.99987     7.97377    0.02636    10.00000

                                 Natural Population      
 --------------------------------------------------------
   Core                       1.99987 ( 99.9935% of   2)
   Valence                    7.97377 ( 99.6721% of   8)
   Natural Minimal Basis      9.97364 ( 99.7364% of  10)
   Natural Rydberg Basis      0.02636 (  0.2636% of  10)
 --------------------------------------------------------

    Atom  No          Natural Electron Configuration
 ----------------------------------------------------------------------------
      H    1            1S( 0.54)
      H    2            1S( 0.54)
      O    3      [core]2S( 1.76)2p( 5.14)3d( 0.01)


 NBO analysis skipped by request.
   1 Symmetry operations used in ECPInt.
 ECPInt:  NShTT=     276 NPrTT=     694 LenC2=     277 LenP2D=     681.
 LDataN:  DoStor=T MaxTD1= 7 Len=  274
 Calling FoFJK, ICntrl=  10002127 FMM=F ISym2X=0 I1Cent= 0 IOpClX= 0 NMat=1 NMatS=1 NMatT=0.
 -------------------------------------------------------------------
 Center     Atomic                   Forces (Hartrees/Bohr)
 Number     Number              X              Y              Z
 -------------------------------------------------------------------
      1        1           0.004488238   -0.011659682    0.013172910
      2        1           0.004488238    0.011659682    0.013172910
      3        8          -0.008976477    0.000000000   -0.026345820
 -------------------------------------------------------------------
 Cartesian Forces:  Max     0.026345820 RMS     0.012622359

 GradGradGradGradGradGradGradGradGradGradGradGradGradGradGradGradGradGrad
 Berny optimization.
 Search for a local minimum.
 Step number   1 out of a maximum of    2
 All quantities printed in internal units (Hartrees-Bohrs-Radians)
 Second derivative matrix not updated -- first step.
 The second derivative matrix:
                          X1        Y1        Z1        X2        Y2
           X1           0.02436
           Y1          -0.07396   0.32720
           Z1           0.07146  -0.21698   0.20966
           X2           0.00291   0.00738   0.00855   0.02436
           Y2          -0.00738  -0.01869  -0.02165   0.07396   0.32720
           Z2           0.00855   0.02165   0.02508   0.07146   0.21698
           X3          -0.02727   0.06658  -0.08001  -0.02727  -0.06658
           Y3           0.08134  -0.30851   0.23863  -0.08134  -0.30851
           Z3          -0.08001   0.19533  -0.23474  -0.08001  -0.19533
                          Z2        X3        Y3        Z3
           Z2           0.20966
           X3          -0.08001   0.05455
           Y3          -0.23863   0.00000   0.61702
           Z3          -0.23474   0.16003   0.00000   0.46948
 ITU=  0
     Eigenvalues ---    0.13656   0.82018   0.90732
 Angle between quadratic step and forces=  33.02 degrees.
 Linear search not attempted -- first point.
 TrRot= -0.004082  0.000000 -0.011974  0.000000  0.000000  0.000000
 Variable       Old X    -DE/DX   Delta X   Delta X   Delta X     New X
                                 (Linear)    (Quad)   (Total)
    X1        0.00000   0.00449   0.00000   0.00947   0.00539   0.00539
    Y1        1.43349  -0.01166   0.00000  -0.00381  -0.00381   1.42967
    Z1       -0.88704   0.01317   0.00000   0.02779   0.01581  -0.87123
    X2        0.00000   0.00449   0.00000   0.00947   0.00539   0.00539
    Y2       -1.43349   0.01166   0.00000   0.00381   0.00381  -1.42967
    Z2       -0.88704   0.01317   0.00000   0.02779   0.01581  -0.87123
    X3        0.37795  -0.00898   0.00000  -0.00670  -0.01078   0.36717
    Y3        0.00000   0.00000   0.00000   0.00000   0.00000   0.00000
    Z3        0.22176  -0.02635   0.00000  -0.01965  -0.03162   0.19014
         Item               Value     Threshold  Converged?
 Maximum Force            0.026346     0.000450     NO 
 RMS     Force            0.012622     0.000300     NO 
 Maximum Displacement     0.031622     0.001800     NO 
 RMS     Displacement     0.013757     0.001200     NO 
 Predicted change in Energy=-7.418270D-04
 GradGradGradGradGradGradGradGradGradGradGradGradGradGradGradGradGradGrad

 1\1\GINC-CCWSGE0257\Force\RB2PLYP-FC\def2TZVPP\H2O1\ALLOUCHE\16-May-20
 19\0\\# B2PLYP/def2tzvpp nosym scf(tight) force Pop=NPA\\xPert\\0,1\H,
 0.,0.758568,-0.469403\H,0.,-0.758568,-0.469403\O,0.2,0.,0.117351\\Vers
 ion=EM64L-G09RevD.01\HF=-76.328082\MP2=-76.4124115\RMSD=4.827e-09\RMSF
 =1.262e-02\Dipole=-0.2541815,0.,-0.7456984\PG=C02V [C2(O1),SGV(H2)]\\@


     "IF I COULD JUST GET IT ON PAPER"
 LIFE AND INK, THEY RUN OUT AT THE SAME TIME,
 OR SO SAID MY OLD FRIEND THE SQUID.
     -- JIMMY BUFFETT, 1981
 Job cpu time:       0 days  0 hours  0 minutes 15.4 seconds.
 File lengths (MBytes):  RWF=      5 Int=      0 D2E=      0 Chk=      1 Scr=      1
 Normal termination of Gaussian 09 at Thu May 16 09:05:14 2019.
