 Entering Gaussian System, Link 0=/pbs/throng/ilm/sl6/allouche/Gaussian09D/g09/g09
 Initial command:
 /pbs/throng/ilm/sl6/allouche/Gaussian09D/g09/l1.exe "/scratch/6332031.1.long/Gau-47822.inp" -scrdir="/scratch/6332031.1.long/"
 Entering Link 1 = /pbs/throng/ilm/sl6/allouche/Gaussian09D/g09/l1.exe PID=     47823.
  
 Copyright (c) 1988,1990,1992,1993,1995,1998,2003,2009,2013,
            Gaussian, Inc.  All Rights Reserved.
  
 This is part of the Gaussian(R) 09 program.  It is based on
 the Gaussian(R) 03 system (copyright 2003, Gaussian, Inc.),
 the Gaussian(R) 98 system (copyright 1998, Gaussian, Inc.),
 the Gaussian(R) 94 system (copyright 1995, Gaussian, Inc.),
 the Gaussian 92(TM) system (copyright 1992, Gaussian, Inc.),
 the Gaussian 90(TM) system (copyright 1990, Gaussian, Inc.),
 the Gaussian 88(TM) system (copyright 1988, Gaussian, Inc.),
 the Gaussian 86(TM) system (copyright 1986, Carnegie Mellon
 University), and the Gaussian 82(TM) system (copyright 1983,
 Carnegie Mellon University). Gaussian is a federally registered
 trademark of Gaussian, Inc.
  
 This software contains proprietary and confidential information,
 including trade secrets, belonging to Gaussian, Inc.
  
 This software is provided under written license and may be
 used, copied, transmitted, or stored only in accord with that
 written license.
  
 The following legend is applicable only to US Government
 contracts under FAR:
  
                    RESTRICTED RIGHTS LEGEND
  
 Use, reproduction and disclosure by the US Government is
 subject to restrictions as set forth in subparagraphs (a)
 and (c) of the Commercial Computer Software - Restricted
 Rights clause in FAR 52.227-19.
  
 Gaussian, Inc.
 340 Quinnipiac St., Bldg. 40, Wallingford CT 06492
  
  
 ---------------------------------------------------------------
 Warning -- This program may not be used in any manner that
 competes with the business of Gaussian, Inc. or will provide
 assistance to any competitor of Gaussian, Inc.  The licensee
 of this program is prohibited from giving any competitor of
 Gaussian, Inc. access to this program.  By using this program,
 the user acknowledges that Gaussian, Inc. is engaged in the
 business of creating and licensing software in the field of
 computational chemistry and represents and warrants to the
 licensee that it is not a competitor of Gaussian, Inc. and that
 it will not use this program in any manner prohibited above.
 ---------------------------------------------------------------
  

 Cite this work as:
 Gaussian 09, Revision D.01,
 M. J. Frisch, G. W. Trucks, H. B. Schlegel, G. E. Scuseria, 
 M. A. Robb, J. R. Cheeseman, G. Scalmani, V. Barone, B. Mennucci, 
 G. A. Petersson, H. Nakatsuji, M. Caricato, X. Li, H. P. Hratchian, 
 A. F. Izmaylov, J. Bloino, G. Zheng, J. L. Sonnenberg, M. Hada, 
 M. Ehara, K. Toyota, R. Fukuda, J. Hasegawa, M. Ishida, T. Nakajima, 
 Y. Honda, O. Kitao, H. Nakai, T. Vreven, J. A. Montgomery, Jr., 
 J. E. Peralta, F. Ogliaro, M. Bearpark, J. J. Heyd, E. Brothers, 
 K. N. Kudin, V. N. Staroverov, T. Keith, R. Kobayashi, J. Normand, 
 K. Raghavachari, A. Rendell, J. C. Burant, S. S. Iyengar, J. Tomasi, 
 M. Cossi, N. Rega, J. M. Millam, M. Klene, J. E. Knox, J. B. Cross, 
 V. Bakken, C. Adamo, J. Jaramillo, R. Gomperts, R. E. Stratmann, 
 O. Yazyev, A. J. Austin, R. Cammi, C. Pomelli, J. W. Ochterski, 
 R. L. Martin, K. Morokuma, V. G. Zakrzewski, G. A. Voth, 
 P. Salvador, J. J. Dannenberg, S. Dapprich, A. D. Daniels, 
 O. Farkas, J. B. Foresman, J. V. Ortiz, J. Cioslowski, 
 and D. J. Fox, Gaussian, Inc., Wallingford CT, 2013.
 
 ******************************************
 Gaussian 09:  EM64L-G09RevD.01 24-Apr-2013
                16-May-2019 
 ******************************************
 -------------------------------------------------
 # B2PLYP/def2tzvpp nosym scf(tight) force Pop=NPA
 -------------------------------------------------
 1/10=7,30=1,38=1/1,3;
 2/12=2,15=1,17=6,18=5,40=1/2;
 3/5=44,7=202,11=9,16=1,25=1,30=1,71=1,74=-47/1,2,3;
 4//1;
 5/5=2,32=2,38=5/2;
 8/6=4,10=1/1;
 9/15=2,16=-3/6;
 10/5=1,31=1/2;
 6/7=2,8=2,9=2,10=2,18=1,40=-1/1,7;
 7/12=2,29=1,30=1/1,2,3,16;
 1/10=7,30=1/3;
 99//99;
 -----
 xPert
 -----
 Symbolic Z-matrix:
 Charge =  0 Multiplicity = 1
 H                     0.        0.95857  -0.4694 
 H                     0.       -0.75857  -0.4694 
 O                     0.        0.        0.11735 
 

 GradGradGradGradGradGradGradGradGradGradGradGradGradGradGradGradGradGrad
 Berny optimization.
 Initialization pass.
 Trust Radius=3.00D-01 FncErr=1.00D-07 GrdErr=1.00D-07
 Number of steps in this run=      2 maximum allowed number of steps=      2.
 GradGradGradGradGradGradGradGradGradGradGradGradGradGradGradGradGradGrad

                          Input orientation:                          
 ---------------------------------------------------------------------
 Center     Atomic      Atomic             Coordinates (Angstroms)
 Number     Number       Type             X           Y           Z
 ---------------------------------------------------------------------
      1          1           0        0.000000    0.958568   -0.469403
      2          1           0        0.000000   -0.758568   -0.469403
      3          8           0        0.000000    0.000000    0.117351
 ---------------------------------------------------------------------
                    Distance matrix (angstroms):
                    1          2          3
     1  H    0.000000
     2  H    1.717136   0.000000
     3  O    1.123892   0.959013   0.000000
 Symmetry turned off by external request.
 Stoichiometry    H2O
 Framework group  CS[SG(H2O)]
 Deg. of freedom     3
 Full point group                 CS      NOp   2
 Rotational constants (GHZ):    836.6877121    333.3685405    238.3862834
 Standard basis: def2TZVPP (5D, 7F)
    59 basis functions,    85 primitive gaussians,    66 cartesian basis functions
     5 alpha electrons        5 beta electrons
       nuclear repulsion energy         8.4892718217 Hartrees.
 NAtoms=    3 NActive=    3 NUniq=    3 SFac= 1.00D+00 NAtFMM=   60 NAOKFM=F Big=F
 Integral buffers will be    131072 words long.
 Regular integral format.
 Two-electron integral symmetry is turned off.
 One-electron integrals computed using PRISM.
   1 Symmetry operations used in ECPInt.
 ECPInt:  NShTT=     276 NPrTT=     694 LenC2=     277 LenP2D=     680.
 LDataN:  DoStor=T MaxTD1= 6 Len=  172
 NBasis=    59 RedAO= T EigKep=  2.68D-03  NBF=    59
 NBsUse=    59 1.00D-06 EigRej= -1.00D+00 NBFU=    59
 ExpMin= 1.03D-01 ExpMax= 2.70D+04 ExpMxC= 9.22D+02 IAcc=1 IRadAn=         1 AccDes= 0.00D+00
 Harris functional with IExCor=  419 and IRadAn=       1 diagonalized for initial guess.
 HarFok:  IExCor=  419 AccDes= 0.00D+00 IRadAn=         1 IDoV= 1 UseB2=F ITyADJ=14
 ICtDFT=  3500011 ScaDFX=  1.000000  1.000000  1.000000  1.000000
 FoFCou: FMM=F IPFlag=           0 FMFlag=      100000 FMFlg1=           0
         NFxFlg=           0 DoJE=T BraDBF=F KetDBF=T FulRan=T
         wScrn=  0.000000 ICntrl=     500 IOpCl=  0 I1Cent=   200000004 NGrid=           0
         NMat0=    1 NMatS0=      1 NMatT0=    0 NMatD0=    1 NMtDS0=    0 NMtDT0=    0
 Symmetry not used in FoFCou.
 Keep R1 ints in memory in canonical form, NReq=3557621.
 Requested convergence on RMS density matrix=1.00D-08 within 128 cycles.
 Requested convergence on MAX density matrix=1.00D-06.
 Requested convergence on             energy=1.00D-06.
 No special actions if energy rises.
 Integral accuracy reduced to 1.0D-05 until final iterations.
 Initial convergence to 1.0D-05 achieved.  Increase integral accuracy.
 SCF Done:  E(RB2PLYP) =  -76.3068654615     A.U. after   10 cycles
            NFock= 10  Conv=0.98D-08     -V/T= 2.0054
 DoSCS=T DFT=T ScalE2(SS,OS)=  0.270000  0.270000
 ExpMin= 1.03D-01 ExpMax= 2.70D+04 ExpMxC= 9.22D+02 IAcc=3 IRadAn=         5 AccDes= 0.00D+00
 HarFok:  IExCor=  205 AccDes= 0.00D+00 IRadAn=         5 IDoV=-2 UseB2=F ITyADJ=14
 ICtDFT= 12500011 ScaDFX=  1.000000  1.000000  1.000000  1.000000
 Range of M.O.s used for correlation:     2    59
 NBasis=    59 NAE=     5 NBE=     5 NFC=     1 NFV=     0
 NROrb=     58 NOA=     4 NOB=     4 NVA=    54 NVB=    54
 DoSCS=T DFT=T ScalE2(SS,OS)=  0.270000  0.270000
 Fully direct method using O(ONN) memory.
 JobTyp=1 Pass  1:  I=   2 to   5 NPSUse=  1 ParTrn=F ParDer=F DoDerP=T.
 Spin components of T(2) and E(2):
     alpha-alpha T2 =       0.1269284551D-01 E2=     -0.1046996524D-01
     alpha-beta  T2 =       0.7623807386D-01 E2=     -0.6513953758D-01
     beta-beta   T2 =       0.1269284551D-01 E2=     -0.1046996524D-01
 E2(B2PLYP) =    -0.8607946807D-01 E(B2PLYP) =    -0.76392944929613D+02
          IDoAtm=111
          Differentiating once with respect to electric field.
                with respect to dipole field.
          Differentiating once with respect to nuclear coordinates.
 Keep R1 ints in memory in canonical form, NReq=3533313.
          There are     1 degrees of freedom in the 1st order CPHF.  IDoFFX=0 NUNeed=     1.
 LinEq1:  Iter=  0 NonCon=     1 RMS=2.19D-03 Max=1.81D-02 NDo=     1
 AX will form     1 AO Fock derivatives at one time.
 LinEq1:  Iter=  1 NonCon=     1 RMS=2.80D-04 Max=1.97D-03 NDo=     1
 LinEq1:  Iter=  2 NonCon=     1 RMS=1.01D-04 Max=8.01D-04 NDo=     1
 LinEq1:  Iter=  3 NonCon=     1 RMS=4.17D-05 Max=2.37D-04 NDo=     1
 LinEq1:  Iter=  4 NonCon=     1 RMS=9.69D-06 Max=5.40D-05 NDo=     1
 LinEq1:  Iter=  5 NonCon=     1 RMS=1.33D-06 Max=1.18D-05 NDo=     1
 LinEq1:  Iter=  6 NonCon=     1 RMS=3.49D-07 Max=2.20D-06 NDo=     1
 LinEq1:  Iter=  7 NonCon=     1 RMS=4.55D-08 Max=2.21D-07 NDo=     1
 LinEq1:  Iter=  8 NonCon=     1 RMS=5.20D-09 Max=3.96D-08 NDo=     1
 LinEq1:  Iter=  9 NonCon=     1 RMS=4.74D-10 Max=4.13D-09 NDo=     1
 LinEq1:  Iter= 10 NonCon=     0 RMS=5.41D-11 Max=2.92D-10 NDo=     1
 Linear equations converged to 1.000D-10 1.000D-09 after    10 iterations.
 End of Minotr F.D. properties file   721 does not exist.
 End of Minotr F.D. properties file   722 does not exist.
 End of Minotr F.D. properties file   788 does not exist.

 **********************************************************************

            Population analysis using the SCF density.

 **********************************************************************

 Alpha  occ. eigenvalues --  -19.73352  -1.11916  -0.58408  -0.44784  -0.38850
 Alpha virt. eigenvalues --    0.04321   0.12223   0.38009   0.44669   0.47830
 Alpha virt. eigenvalues --    0.49620   0.59461   0.62208   0.72079   0.75090
 Alpha virt. eigenvalues --    0.85653   1.01248   1.17880   1.29372   1.78532
 Alpha virt. eigenvalues --    1.83094   1.89371   1.94009   2.04564   2.34177
 Alpha virt. eigenvalues --    2.49582   2.68571   2.84595   3.16672   3.23583
 Alpha virt. eigenvalues --    3.29909   3.30356   3.34667   3.45210   3.55545
 Alpha virt. eigenvalues --    3.69851   3.71250   3.76515   3.97371   4.08956
 Alpha virt. eigenvalues --    4.13268   4.18559   4.49680   4.69486   4.91462
 Alpha virt. eigenvalues --    4.97105   5.61093   5.88230   6.17366   6.60729
 Alpha virt. eigenvalues --    6.71045   6.71201   6.78296   6.87555   6.95645
 Alpha virt. eigenvalues --    7.22655   7.45347   7.74703  44.02579
          Condensed to atoms (all electrons):
               1          2          3
     1  H    0.454353  -0.020792   0.295736
     2  H   -0.020792   0.470015   0.330818
     3  O    0.295736   0.330818   7.864109
 Mulliken charges:
               1
     1  H    0.270703
     2  H    0.219959
     3  O   -0.490662
 Sum of Mulliken charges =   0.00000
 Mulliken charges with hydrogens summed into heavy atoms:
               1
     3  O    0.000000
 Electronic spatial extent (au):  <R**2>=             20.6153
 Charge=              0.0000 electrons
 Dipole moment (field-independent basis, Debye):
    X=              0.0000    Y=              0.2422    Z=             -1.9345  Tot=              1.9496
 Quadrupole moment (field-independent basis, Debye-Ang):
   XX=             -7.6549   YY=             -3.7739   ZZ=             -6.4764
   XY=              0.0000   XZ=              0.0000   YZ=             -0.1204
 Traceless Quadrupole moment (field-independent basis, Debye-Ang):
   XX=             -1.6865   YY=              2.1945   ZZ=             -0.5080
   XY=              0.0000   XZ=              0.0000   YZ=             -0.1204
 Octapole moment (field-independent basis, Debye-Ang**2):
  XXX=              0.0000  YYY=              0.3137  ZZZ=             -0.9774  XYY=              0.0000
  XXY=             -0.2198  XXZ=             -0.2335  XZZ=              0.0000  YZZ=             -0.1369
  YYZ=             -1.6011  XYZ=              0.0000
 Hexadecapole moment (field-independent basis, Debye-Ang**3):
 XXXX=             -6.4831 YYYY=             -6.4239 ZZZZ=             -7.5296 XXXY=              0.0000
 XXXZ=              0.0000 YYYX=              0.0000 YYYZ=             -0.1856 ZZZX=              0.0000
 ZZZY=              0.2812 XXYY=             -2.6867 XXZZ=             -2.3873 YYZZ=             -2.0342
 XXYZ=              0.1048 YYXZ=              0.0000 ZZXY=              0.0000
 N-N= 8.489271821714D+00 E-N=-1.977486799026D+02  KE= 7.589576311952D+01
 ******************************Gaussian NBO Version 3.1******************************
             N A T U R A L   A T O M I C   O R B I T A L   A N D
          N A T U R A L   B O N D   O R B I T A L   A N A L Y S I S
 ******************************Gaussian NBO Version 3.1******************************
       /RESON  / : Allow strongly delocalized NBO set

 Analyzing the SCF density

 Job title: xPert                                                           

 Storage needed:     10799 in NPA ( 536870849 available)


 NATURAL POPULATIONS:  Natural atomic orbital occupancies 
                                                          
   NAO  Atom  No  lang   Type(AO)    Occupancy      Energy
 ----------------------------------------------------------
     1    H    1  S      Val( 1S)     0.52506       0.02228
     2    H    1  S      Ryd( 2S)     0.00157       0.70763
     3    H    1  S      Ryd( 3S)     0.00011       1.95496
     4    H    1  px     Ryd( 2p)     0.00152       1.40058
     5    H    1  px     Ryd( 3p)     0.00001       3.41009
     6    H    1  py     Ryd( 2p)     0.00033       2.46508
     7    H    1  py     Ryd( 3p)     0.00037       3.76665
     8    H    1  pz     Ryd( 2p)     0.00104       1.79466
     9    H    1  pz     Ryd( 3p)     0.00027       3.58278
    10    H    1  dxy    Ryd( 3d)     0.00002       3.77094
    11    H    1  dxz    Ryd( 3d)     0.00000       3.50307
    12    H    1  dyz    Ryd( 3d)     0.00002       3.98758
    13    H    1  dx2y2  Ryd( 3d)     0.00005       3.83125
    14    H    1  dz2    Ryd( 3d)     0.00002       3.71248

    15    H    2  S      Val( 1S)     0.52876       0.18871
    16    H    2  S      Ryd( 2S)     0.00181       0.80940
    17    H    2  S      Ryd( 3S)     0.00013       1.70528
    18    H    2  px     Ryd( 2p)     0.00201       1.75359
    19    H    2  px     Ryd( 3p)     0.00000       3.41623
    20    H    2  py     Ryd( 2p)     0.00026       2.48317
    21    H    2  py     Ryd( 3p)     0.00076       3.66337
    22    H    2  pz     Ryd( 2p)     0.00115       2.15666
    23    H    2  pz     Ryd( 3p)     0.00058       3.59728
    24    H    2  dxy    Ryd( 3d)     0.00002       3.85150
    25    H    2  dxz    Ryd( 3d)     0.00000       3.68030
    26    H    2  dyz    Ryd( 3d)     0.00004       4.15237
    27    H    2  dx2y2  Ryd( 3d)     0.00007       3.89961
    28    H    2  dz2    Ryd( 3d)     0.00002       3.91105

    29    O    3  S      Cor( 1S)     1.99987     -19.54750
    30    O    3  S      Val( 2S)     1.78111      -1.06255
    31    O    3  S      Ryd( 4S)     0.00040       3.01306
    32    O    3  S      Ryd( 3S)     0.00002       2.37033
    33    O    3  S      Ryd( 5S)     0.00000      42.64406
    34    O    3  px     Val( 2p)     1.99374      -0.38373
    35    O    3  px     Ryd( 3p)     0.00059       0.56806
    36    O    3  px     Ryd( 4p)     0.00000       2.72957
    37    O    3  py     Val( 2p)     1.44154      -0.30031
    38    O    3  py     Ryd( 3p)     0.00174       0.63501
    39    O    3  py     Ryd( 4p)     0.00002       3.36334
    40    O    3  pz     Val( 2p)     1.70722      -0.34235
    41    O    3  pz     Ryd( 3p)     0.00038       0.59445
    42    O    3  pz     Ryd( 4p)     0.00017       3.05884
    43    O    3  dxy    Ryd( 3d)     0.00002       2.24257
    44    O    3  dxy    Ryd( 4d)     0.00000       6.53975
    45    O    3  dxz    Ryd( 3d)     0.00188       2.05367
    46    O    3  dxz    Ryd( 4d)     0.00002       6.47830
    47    O    3  dyz    Ryd( 3d)     0.00197       3.11055
    48    O    3  dyz    Ryd( 4d)     0.00011       6.98515
    49    O    3  dx2y2  Ryd( 3d)     0.00094       2.60717
    50    O    3  dx2y2  Ryd( 4d)     0.00001       6.71535
    51    O    3  dz2    Ryd( 3d)     0.00191       2.34113
    52    O    3  dz2    Ryd( 4d)     0.00003       6.60283
    53    O    3  f(0)   Ryd( 4f)     0.00001       5.78775
    54    O    3  f(C1)  Ryd( 4f)     0.00001       5.48070
    55    O    3  f(S1)  Ryd( 4f)     0.00002       6.19782
    56    O    3  f(C2)  Ryd( 4f)     0.00009       6.15169
    57    O    3  f(S2)  Ryd( 4f)     0.00001       5.90344
    58    O    3  f(C3)  Ryd( 4f)     0.00016       5.80690
    59    O    3  f(S3)  Ryd( 4f)     0.00005       5.82376

 WARNING:  Population inversion found on atom  H    1
           Population inversion found on atom  H    2
           Population inversion found on atom  O    3


 Summary of Natural Population Analysis:                  
                                                          
                                       Natural Population 
                Natural  -----------------------------------------------
    Atom  No    Charge         Core      Valence    Rydberg      Total
 -----------------------------------------------------------------------
      H    1    0.46962      0.00000     0.52506    0.00532     0.53038
      H    2    0.46439      0.00000     0.52876    0.00685     0.53561
      O    3   -0.93402      1.99987     6.92360    0.01055     8.93402
 =======================================================================
   * Total *    0.00000      1.99987     7.97742    0.02271    10.00000

                                 Natural Population      
 --------------------------------------------------------
   Core                       1.99987 ( 99.9933% of   2)
   Valence                    7.97742 ( 99.7178% of   8)
   Natural Minimal Basis      9.97729 ( 99.7729% of  10)
   Natural Rydberg Basis      0.02271 (  0.2271% of  10)
 --------------------------------------------------------

    Atom  No          Natural Electron Configuration
 ----------------------------------------------------------------------------
      H    1            1S( 0.53)
      H    2            1S( 0.53)
      O    3      [core]2S( 1.78)2p( 5.14)3d( 0.01)


 NBO analysis skipped by request.
   1 Symmetry operations used in ECPInt.
 ECPInt:  NShTT=     276 NPrTT=     694 LenC2=     277 LenP2D=     680.
 LDataN:  DoStor=T MaxTD1= 7 Len=  274
 Calling FoFJK, ICntrl=  10002127 FMM=F ISym2X=0 I1Cent= 0 IOpClX= 0 NMat=1 NMatS=1 NMatT=0.
 -------------------------------------------------------------------
 Center     Atomic                   Forces (Hartrees/Bohr)
 Number     Number              X              Y              Z
 -------------------------------------------------------------------
      1        1           0.000000000   -0.092689665    0.043121192
      2        1           0.000000000    0.008462453   -0.010655251
      3        8           0.000000000    0.084227212   -0.032465942
 -------------------------------------------------------------------
 Cartesian Forces:  Max     0.092689665 RMS     0.045685178

 GradGradGradGradGradGradGradGradGradGradGradGradGradGradGradGradGradGrad
 Berny optimization.
 Search for a local minimum.
 Step number   1 out of a maximum of    2
 All quantities printed in internal units (Hartrees-Bohrs-Radians)
 Second derivative matrix not updated -- first step.
 The second derivative matrix:
                          X1        Y1        Z1        X2        Y2
           X1           1.00000
           Y1           0.00000   0.23643
           Z1           0.00000  -0.12301   0.11077
           X2           0.00000   0.00000   0.00000   1.00000
           Y2           0.00000  -0.01328  -0.02169   0.00000   0.36664
           Z2           0.00000   0.01717   0.02804   0.00000   0.24592
           X3           0.00000   0.00000   0.00000   0.00000   0.00000
           Y3           0.00000  -0.22315   0.14470   0.00000  -0.35337
           Z3           0.00000   0.10584  -0.13881   0.00000  -0.22423
                          Z2        X3        Y3        Z3
           Z2           0.23893
           X3           0.00000   1.00000
           Y3          -0.26308   0.00000   0.57652
           Z3          -0.26698   0.00000   0.11838   0.40579
 ITU=  0
     Eigenvalues ---    0.12998   0.51876   0.94376
 Quadratic step=3.575D-01 exceeds max=3.000D-01 adjusted using Lamda=-3.789D-02.
 Angle between NR and scaled steps=   5.30 degrees.
 Angle between quadratic step and forces=  37.09 degrees.
 Linear search not attempted -- first point.
 TrRot=  0.000000  0.034730  0.002734  0.000000  0.000000  0.000000
 Variable       Old X    -DE/DX   Delta X   Delta X   Delta X     New X
                                 (Linear)    (Quad)   (Total)
    X1        0.00000   0.00000   0.00000   0.00000   0.00000   0.00000
    Y1        1.81143  -0.09269   0.00000  -0.26452  -0.22980   1.58164
    Z1       -0.88704   0.04312   0.00000   0.04947   0.05220  -0.83484
    X2        0.00000   0.00000   0.00000   0.00000   0.00000   0.00000
    Y2       -1.43349   0.00846   0.00000   0.10335   0.13808  -1.29540
    Z2       -0.88704  -0.01066   0.00000  -0.06216  -0.05942  -0.94647
    X3        0.00000   0.00000   0.00000   0.00000   0.00000   0.00000
    Y3        0.00000   0.08423   0.00000   0.05698   0.09171   0.09171
    Z3        0.22176  -0.03247   0.00000   0.00449   0.00722   0.22898
         Item               Value     Threshold  Converged?
 Maximum Force            0.092690     0.000450     NO 
 RMS     Force            0.045685     0.000300     NO 
 Maximum Displacement     0.229795     0.001800     NO 
 RMS     Displacement     0.098088     0.001200     NO 
 Predicted change in Energy=-1.813087D-02
 GradGradGradGradGradGradGradGradGradGradGradGradGradGradGradGradGradGrad

 1\1\GINC-CCWSGE1001\Force\RB2PLYP-FC\def2TZVPP\H2O1\ALLOUCHE\16-May-20
 19\0\\# B2PLYP/def2tzvpp nosym scf(tight) force Pop=NPA\\xPert\\0,1\H,
 0.,0.958568,-0.469403\H,0.,-0.758568,-0.469403\O,0.,0.,0.117351\\Versi
 on=EM64L-G09RevD.01\HF=-76.3068655\MP2=-76.3929449\RMSD=9.811e-09\RMSF
 =4.569e-02\Dipole=0.,0.0903245,-0.7402292\PG=CS [SG(H2O1)]\\@


 VIRTUE IS LEARNED AT YOUR MOTHER'S KNEE,
 VICES ARE PICKED UP AT SOME OTHER JOINT.
 Job cpu time:       0 days  0 hours  0 minutes 22.4 seconds.
 File lengths (MBytes):  RWF=      5 Int=      0 D2E=      0 Chk=      1 Scr=      1
 Normal termination of Gaussian 09 at Thu May 16 09:05:23 2019.
