 Entering Gaussian System, Link 0=/pbs/throng/ilm/sl6/allouche/Gaussian09D/g09/g09
 Initial command:
 /pbs/throng/ilm/sl6/allouche/Gaussian09D/g09/l1.exe "/scratch/6332032.1.long/Gau-79710.inp" -scrdir="/scratch/6332032.1.long/"
 Entering Link 1 = /pbs/throng/ilm/sl6/allouche/Gaussian09D/g09/l1.exe PID=     79712.
  
 Copyright (c) 1988,1990,1992,1993,1995,1998,2003,2009,2013,
            Gaussian, Inc.  All Rights Reserved.
  
 This is part of the Gaussian(R) 09 program.  It is based on
 the Gaussian(R) 03 system (copyright 2003, Gaussian, Inc.),
 the Gaussian(R) 98 system (copyright 1998, Gaussian, Inc.),
 the Gaussian(R) 94 system (copyright 1995, Gaussian, Inc.),
 the Gaussian 92(TM) system (copyright 1992, Gaussian, Inc.),
 the Gaussian 90(TM) system (copyright 1990, Gaussian, Inc.),
 the Gaussian 88(TM) system (copyright 1988, Gaussian, Inc.),
 the Gaussian 86(TM) system (copyright 1986, Carnegie Mellon
 University), and the Gaussian 82(TM) system (copyright 1983,
 Carnegie Mellon University). Gaussian is a federally registered
 trademark of Gaussian, Inc.
  
 This software contains proprietary and confidential information,
 including trade secrets, belonging to Gaussian, Inc.
  
 This software is provided under written license and may be
 used, copied, transmitted, or stored only in accord with that
 written license.
  
 The following legend is applicable only to US Government
 contracts under FAR:
  
                    RESTRICTED RIGHTS LEGEND
  
 Use, reproduction and disclosure by the US Government is
 subject to restrictions as set forth in subparagraphs (a)
 and (c) of the Commercial Computer Software - Restricted
 Rights clause in FAR 52.227-19.
  
 Gaussian, Inc.
 340 Quinnipiac St., Bldg. 40, Wallingford CT 06492
  
  
 ---------------------------------------------------------------
 Warning -- This program may not be used in any manner that
 competes with the business of Gaussian, Inc. or will provide
 assistance to any competitor of Gaussian, Inc.  The licensee
 of this program is prohibited from giving any competitor of
 Gaussian, Inc. access to this program.  By using this program,
 the user acknowledges that Gaussian, Inc. is engaged in the
 business of creating and licensing software in the field of
 computational chemistry and represents and warrants to the
 licensee that it is not a competitor of Gaussian, Inc. and that
 it will not use this program in any manner prohibited above.
 ---------------------------------------------------------------
  

 Cite this work as:
 Gaussian 09, Revision D.01,
 M. J. Frisch, G. W. Trucks, H. B. Schlegel, G. E. Scuseria, 
 M. A. Robb, J. R. Cheeseman, G. Scalmani, V. Barone, B. Mennucci, 
 G. A. Petersson, H. Nakatsuji, M. Caricato, X. Li, H. P. Hratchian, 
 A. F. Izmaylov, J. Bloino, G. Zheng, J. L. Sonnenberg, M. Hada, 
 M. Ehara, K. Toyota, R. Fukuda, J. Hasegawa, M. Ishida, T. Nakajima, 
 Y. Honda, O. Kitao, H. Nakai, T. Vreven, J. A. Montgomery, Jr., 
 J. E. Peralta, F. Ogliaro, M. Bearpark, J. J. Heyd, E. Brothers, 
 K. N. Kudin, V. N. Staroverov, T. Keith, R. Kobayashi, J. Normand, 
 K. Raghavachari, A. Rendell, J. C. Burant, S. S. Iyengar, J. Tomasi, 
 M. Cossi, N. Rega, J. M. Millam, M. Klene, J. E. Knox, J. B. Cross, 
 V. Bakken, C. Adamo, J. Jaramillo, R. Gomperts, R. E. Stratmann, 
 O. Yazyev, A. J. Austin, R. Cammi, C. Pomelli, J. W. Ochterski, 
 R. L. Martin, K. Morokuma, V. G. Zakrzewski, G. A. Voth, 
 P. Salvador, J. J. Dannenberg, S. Dapprich, A. D. Daniels, 
 O. Farkas, J. B. Foresman, J. V. Ortiz, J. Cioslowski, 
 and D. J. Fox, Gaussian, Inc., Wallingford CT, 2013.
 
 ******************************************
 Gaussian 09:  EM64L-G09RevD.01 24-Apr-2013
                16-May-2019 
 ******************************************
 -------------------------------------------------
 # B2PLYP/def2tzvpp nosym scf(tight) force Pop=NPA
 -------------------------------------------------
 1/10=7,30=1,38=1/1,3;
 2/12=2,15=1,17=6,18=5,40=1/2;
 3/5=44,7=202,11=9,16=1,25=1,30=1,71=1,74=-47/1,2,3;
 4//1;
 5/5=2,32=2,38=5/2;
 8/6=4,10=1/1;
 9/15=2,16=-3/6;
 10/5=1,31=1/2;
 6/7=2,8=2,9=2,10=2,18=1,40=-1/1,7;
 7/12=2,29=1,30=1/1,2,3,16;
 1/10=7,30=1/3;
 99//99;
 -----
 xPert
 -----
 Symbolic Z-matrix:
 Charge =  0 Multiplicity = 1
 H                     0.        0.75857  -0.4694 
 H                     0.       -0.55857  -0.4694 
 O                     0.        0.        0.11735 
 

 GradGradGradGradGradGradGradGradGradGradGradGradGradGradGradGradGradGrad
 Berny optimization.
 Initialization pass.
 Trust Radius=3.00D-01 FncErr=1.00D-07 GrdErr=1.00D-07
 Number of steps in this run=      2 maximum allowed number of steps=      2.
 GradGradGradGradGradGradGradGradGradGradGradGradGradGradGradGradGradGrad

                          Input orientation:                          
 ---------------------------------------------------------------------
 Center     Atomic      Atomic             Coordinates (Angstroms)
 Number     Number       Type             X           Y           Z
 ---------------------------------------------------------------------
      1          1           0        0.000000    0.758568   -0.469403
      2          1           0        0.000000   -0.558568   -0.469403
      3          8           0        0.000000    0.000000    0.117351
 ---------------------------------------------------------------------
                    Distance matrix (angstroms):
                    1          2          3
     1  H    0.000000
     2  H    1.317136   0.000000
     3  O    0.959013   0.810110   0.000000
 Symmetry turned off by external request.
 Stoichiometry    H2O
 Framework group  CS[SG(H2O)]
 Deg. of freedom     3
 Full point group                 CS      NOp   2
 Rotational constants (GHZ):    870.0777454    544.8514244    335.0436962
 Standard basis: def2TZVPP (5D, 7F)
    59 basis functions,    85 primitive gaussians,    66 cartesian basis functions
     5 alpha electrons        5 beta electrons
       nuclear repulsion energy        10.0418436280 Hartrees.
 NAtoms=    3 NActive=    3 NUniq=    3 SFac= 1.00D+00 NAtFMM=   60 NAOKFM=F Big=F
 Integral buffers will be    131072 words long.
 Regular integral format.
 Two-electron integral symmetry is turned off.
 One-electron integrals computed using PRISM.
   1 Symmetry operations used in ECPInt.
 ECPInt:  NShTT=     276 NPrTT=     694 LenC2=     277 LenP2D=     682.
 LDataN:  DoStor=T MaxTD1= 6 Len=  172
 NBasis=    59 RedAO= T EigKep=  1.62D-03  NBF=    59
 NBsUse=    59 1.00D-06 EigRej= -1.00D+00 NBFU=    59
 ExpMin= 1.03D-01 ExpMax= 2.70D+04 ExpMxC= 9.22D+02 IAcc=1 IRadAn=         1 AccDes= 0.00D+00
 Harris functional with IExCor=  419 and IRadAn=       1 diagonalized for initial guess.
 HarFok:  IExCor=  419 AccDes= 0.00D+00 IRadAn=         1 IDoV= 1 UseB2=F ITyADJ=14
 ICtDFT=  3500011 ScaDFX=  1.000000  1.000000  1.000000  1.000000
 FoFCou: FMM=F IPFlag=           0 FMFlag=      100000 FMFlg1=           0
         NFxFlg=           0 DoJE=T BraDBF=F KetDBF=T FulRan=T
         wScrn=  0.000000 ICntrl=     500 IOpCl=  0 I1Cent=   200000004 NGrid=           0
         NMat0=    1 NMatS0=      1 NMatT0=    0 NMatD0=    1 NMtDS0=    0 NMtDT0=    0
 Symmetry not used in FoFCou.
 Keep R1 ints in memory in canonical form, NReq=3557677.
 Requested convergence on RMS density matrix=1.00D-08 within 128 cycles.
 Requested convergence on MAX density matrix=1.00D-06.
 Requested convergence on             energy=1.00D-06.
 No special actions if energy rises.
 Integral accuracy reduced to 1.0D-05 until final iterations.
 Initial convergence to 1.0D-05 achieved.  Increase integral accuracy.
 SCF Done:  E(RB2PLYP) =  -76.2973190140     A.U. after   10 cycles
            NFock= 10  Conv=0.57D-08     -V/T= 1.9971
 DoSCS=T DFT=T ScalE2(SS,OS)=  0.270000  0.270000
 ExpMin= 1.03D-01 ExpMax= 2.70D+04 ExpMxC= 9.22D+02 IAcc=3 IRadAn=         5 AccDes= 0.00D+00
 HarFok:  IExCor=  205 AccDes= 0.00D+00 IRadAn=         5 IDoV=-2 UseB2=F ITyADJ=14
 ICtDFT= 12500011 ScaDFX=  1.000000  1.000000  1.000000  1.000000
 Range of M.O.s used for correlation:     2    59
 NBasis=    59 NAE=     5 NBE=     5 NFC=     1 NFV=     0
 NROrb=     58 NOA=     4 NOB=     4 NVA=    54 NVB=    54
 DoSCS=T DFT=T ScalE2(SS,OS)=  0.270000  0.270000
 Fully direct method using O(ONN) memory.
 JobTyp=1 Pass  1:  I=   2 to   5 NPSUse=  1 ParTrn=F ParDer=F DoDerP=T.
 Spin components of T(2) and E(2):
     alpha-alpha T2 =       0.1072866992D-01 E2=     -0.9996093317D-02
     alpha-beta  T2 =       0.6172486865D-01 E2=     -0.6154677598D-01
     beta-beta   T2 =       0.1072866992D-01 E2=     -0.9996093317D-02
 E2(B2PLYP) =    -0.8153896262D-01 E(B2PLYP) =    -0.76378857976626D+02
          IDoAtm=111
          Differentiating once with respect to electric field.
                with respect to dipole field.
          Differentiating once with respect to nuclear coordinates.
 Keep R1 ints in memory in canonical form, NReq=3533408.
          There are     1 degrees of freedom in the 1st order CPHF.  IDoFFX=0 NUNeed=     1.
 LinEq1:  Iter=  0 NonCon=     1 RMS=1.73D-03 Max=1.34D-02 NDo=     1
 AX will form     1 AO Fock derivatives at one time.
 LinEq1:  Iter=  1 NonCon=     1 RMS=1.80D-04 Max=1.11D-03 NDo=     1
 LinEq1:  Iter=  2 NonCon=     1 RMS=3.37D-05 Max=2.00D-04 NDo=     1
 LinEq1:  Iter=  3 NonCon=     1 RMS=5.15D-06 Max=3.14D-05 NDo=     1
 LinEq1:  Iter=  4 NonCon=     1 RMS=2.36D-06 Max=1.96D-05 NDo=     1
 LinEq1:  Iter=  5 NonCon=     1 RMS=3.29D-07 Max=1.90D-06 NDo=     1
 LinEq1:  Iter=  6 NonCon=     1 RMS=6.44D-08 Max=3.12D-07 NDo=     1
 LinEq1:  Iter=  7 NonCon=     1 RMS=1.04D-08 Max=1.02D-07 NDo=     1
 LinEq1:  Iter=  8 NonCon=     1 RMS=9.75D-10 Max=8.88D-09 NDo=     1
 LinEq1:  Iter=  9 NonCon=     0 RMS=7.72D-11 Max=5.15D-10 NDo=     1
 Linear equations converged to 1.000D-10 1.000D-09 after     9 iterations.
 End of Minotr F.D. properties file   721 does not exist.
 End of Minotr F.D. properties file   722 does not exist.
 End of Minotr F.D. properties file   788 does not exist.

 **********************************************************************

            Population analysis using the SCF density.

 **********************************************************************

 Alpha  occ. eigenvalues --  -19.71515  -1.20573  -0.62572  -0.49711  -0.40541
 Alpha virt. eigenvalues --    0.06423   0.14682   0.42414   0.45516   0.48872
 Alpha virt. eigenvalues --    0.55691   0.63826   0.65021   0.69107   0.77674
 Alpha virt. eigenvalues --    0.82724   1.14117   1.26918   1.39505   1.72020
 Alpha virt. eigenvalues --    1.88220   1.90903   1.93933   2.00373   2.20853
 Alpha virt. eigenvalues --    2.54459   2.69625   2.87390   3.08235   3.22238
 Alpha virt. eigenvalues --    3.40905   3.49736   3.61236   3.66851   3.75979
 Alpha virt. eigenvalues --    3.78173   3.81182   3.88097   4.14268   4.28890
 Alpha virt. eigenvalues --    4.37504   4.47360   4.76161   4.98208   5.19527
 Alpha virt. eigenvalues --    5.52779   5.95820   6.53488   6.54229   6.63213
 Alpha virt. eigenvalues --    6.72432   6.82161   7.02029   7.16689   7.43303
 Alpha virt. eigenvalues --    7.82055   7.94168   8.35165  44.44668
          Condensed to atoms (all electrons):
               1          2          3
     1  H    0.493226  -0.034082   0.341699
     2  H   -0.034082   0.541867   0.394145
     3  O    0.341699   0.394145   7.561384
 Mulliken charges:
               1
     1  H    0.199157
     2  H    0.098070
     3  O   -0.297228
 Sum of Mulliken charges =   0.00000
 Mulliken charges with hydrogens summed into heavy atoms:
               1
     3  O    0.000000
 Electronic spatial extent (au):  <R**2>=             18.5087
 Charge=              0.0000 electrons
 Dipole moment (field-independent basis, Debye):
    X=              0.0000    Y=              0.2478    Z=             -2.0535  Tot=              2.0684
 Quadrupole moment (field-independent basis, Debye-Ang):
   XX=             -7.2826   YY=             -4.7286   ZZ=             -5.9754
   XY=              0.0000   XZ=              0.0000   YZ=             -0.1349
 Traceless Quadrupole moment (field-independent basis, Debye-Ang):
   XX=             -1.2871   YY=              1.2669   ZZ=              0.0201
   XY=              0.0000   XZ=              0.0000   YZ=             -0.1349
 Octapole moment (field-independent basis, Debye-Ang**2):
  XXX=              0.0000  YYY=              0.0242  ZZZ=             -1.3926  XYY=              0.0000
  XXY=             -0.1763  XXZ=             -0.3646  XZZ=              0.0000  YZZ=             -0.0771
  YYZ=             -1.1243  XYZ=              0.0000
 Hexadecapole moment (field-independent basis, Debye-Ang**3):
 XXXX=             -5.9525 YYYY=             -5.7587 ZZZZ=             -6.4900 XXXY=              0.0000
 XXXZ=              0.0000 YYYX=              0.0000 YYYZ=             -0.0590 ZZZX=              0.0000
 ZZZY=              0.2060 XXYY=             -2.1553 XXZZ=             -2.1313 YYZZ=             -1.7451
 XXYZ=              0.0828 YYXZ=              0.0000 ZZXY=              0.0000
 N-N= 1.004184362797D+01 E-N=-2.010558176809D+02  KE= 7.651932442578D+01
 ******************************Gaussian NBO Version 3.1******************************
             N A T U R A L   A T O M I C   O R B I T A L   A N D
          N A T U R A L   B O N D   O R B I T A L   A N A L Y S I S
 ******************************Gaussian NBO Version 3.1******************************
       /RESON  / : Allow strongly delocalized NBO set

 Analyzing the SCF density

 Job title: xPert                                                           

 Storage needed:     10799 in NPA ( 536870849 available)


 NATURAL POPULATIONS:  Natural atomic orbital occupancies 
                                                          
   NAO  Atom  No  lang   Type(AO)    Occupancy      Energy
 ----------------------------------------------------------
     1    H    1  S      Val( 1S)     0.54895       0.14358
     2    H    1  S      Ryd( 2S)     0.00097       0.84502
     3    H    1  S      Ryd( 3S)     0.00004       1.72734
     4    H    1  px     Ryd( 2p)     0.00229       1.61277
     5    H    1  px     Ryd( 3p)     0.00000       3.54797
     6    H    1  py     Ryd( 2p)     0.00040       2.38300
     7    H    1  py     Ryd( 3p)     0.00052       3.85217
     8    H    1  pz     Ryd( 2p)     0.00165       2.03553
     9    H    1  pz     Ryd( 3p)     0.00057       3.72791
    10    H    1  dxy    Ryd( 3d)     0.00002       3.84879
    11    H    1  dxz    Ryd( 3d)     0.00002       3.67801
    12    H    1  dyz    Ryd( 3d)     0.00001       4.21290
    13    H    1  dx2y2  Ryd( 3d)     0.00017       3.99765
    14    H    1  dz2    Ryd( 3d)     0.00001       3.91349

    15    H    2  S      Val( 1S)     0.56988       0.39564
    16    H    2  S      Ryd( 3S)     0.00099       1.21365
    17    H    2  S      Ryd( 2S)     0.00009       1.08196
    18    H    2  px     Ryd( 2p)     0.00252       2.07611
    19    H    2  px     Ryd( 3p)     0.00000       3.54252
    20    H    2  py     Ryd( 2p)     0.00068       2.72709
    21    H    2  py     Ryd( 3p)     0.00064       3.75433
    22    H    2  pz     Ryd( 2p)     0.00138       2.68650
    23    H    2  pz     Ryd( 3p)     0.00105       3.71601
    24    H    2  dxy    Ryd( 3d)     0.00002       3.84379
    25    H    2  dxz    Ryd( 3d)     0.00003       3.86289
    26    H    2  dyz    Ryd( 3d)     0.00003       4.37347
    27    H    2  dx2y2  Ryd( 3d)     0.00021       4.02080
    28    H    2  dz2    Ryd( 3d)     0.00002       4.10877

    29    O    3  S      Cor( 1S)     1.99979     -19.44020
    30    O    3  S      Val( 2S)     1.70152      -1.04578
    31    O    3  S      Ryd( 3S)     0.00106       1.98830
    32    O    3  S      Ryd( 4S)     0.00003       3.05094
    33    O    3  S      Ryd( 5S)     0.00000      43.50784
    34    O    3  px     Val( 2p)     1.98937      -0.39751
    35    O    3  px     Ryd( 3p)     0.00220       0.71670
    36    O    3  px     Ryd( 4p)     0.00000       2.52616
    37    O    3  py     Val( 2p)     1.45905      -0.29044
    38    O    3  py     Ryd( 3p)     0.00407       0.80983
    39    O    3  py     Ryd( 4p)     0.00003       3.30081
    40    O    3  pz     Val( 2p)     1.69920      -0.33962
    41    O    3  pz     Ryd( 3p)     0.00066       0.77368
    42    O    3  pz     Ryd( 4p)     0.00018       3.11940
    43    O    3  dxy    Ryd( 3d)     0.00000       2.39135
    44    O    3  dxy    Ryd( 4d)     0.00000       6.49009
    45    O    3  dxz    Ryd( 3d)     0.00323       2.35931
    46    O    3  dxz    Ryd( 4d)     0.00004       6.50808
    47    O    3  dyz    Ryd( 3d)     0.00175       4.13849
    48    O    3  dyz    Ryd( 4d)     0.00025       7.08781
    49    O    3  dx2y2  Ryd( 3d)     0.00064       2.83265
    50    O    3  dx2y2  Ryd( 4d)     0.00000       6.62026
    51    O    3  dz2    Ryd( 3d)     0.00328       2.76625
    52    O    3  dz2    Ryd( 4d)     0.00003       6.62172
    53    O    3  f(0)   Ryd( 4f)     0.00004       6.09866
    54    O    3  f(C1)  Ryd( 4f)     0.00006       5.76233
    55    O    3  f(S1)  Ryd( 4f)     0.00003       6.59179
    56    O    3  f(C2)  Ryd( 4f)     0.00005       6.41646
    57    O    3  f(S2)  Ryd( 4f)     0.00001       6.11973
    58    O    3  f(C3)  Ryd( 4f)     0.00019       5.84142
    59    O    3  f(S3)  Ryd( 4f)     0.00004       5.86484

 WARNING:  Population inversion found on atom  H    1
           Population inversion found on atom  H    2
           Population inversion found on atom  O    3


 Summary of Natural Population Analysis:                  
                                                          
                                       Natural Population 
                Natural  -----------------------------------------------
    Atom  No    Charge         Core      Valence    Rydberg      Total
 -----------------------------------------------------------------------
      H    1    0.44437      0.00000     0.54895    0.00668     0.55563
      H    2    0.42245      0.00000     0.56988    0.00767     0.57755
      O    3   -0.86682      1.99979     6.84914    0.01789     8.86682
 =======================================================================
   * Total *    0.00000      1.99979     7.96797    0.03224    10.00000

                                 Natural Population      
 --------------------------------------------------------
   Core                       1.99979 ( 99.9896% of   2)
   Valence                    7.96797 ( 99.5997% of   8)
   Natural Minimal Basis      9.96776 ( 99.6776% of  10)
   Natural Rydberg Basis      0.03224 (  0.3224% of  10)
 --------------------------------------------------------

    Atom  No          Natural Electron Configuration
 ----------------------------------------------------------------------------
      H    1            1S( 0.55)
      H    2            1S( 0.57)
      O    3      [core]2S( 1.70)2p( 5.15)3p( 0.01)3d( 0.01)


 NBO analysis skipped by request.
   1 Symmetry operations used in ECPInt.
 ECPInt:  NShTT=     276 NPrTT=     694 LenC2=     277 LenP2D=     682.
 LDataN:  DoStor=T MaxTD1= 7 Len=  274
 Calling FoFJK, ICntrl=  10002127 FMM=F ISym2X=0 I1Cent= 0 IOpClX= 0 NMat=1 NMatS=1 NMatT=0.
 -------------------------------------------------------------------
 Center     Atomic                   Forces (Hartrees/Bohr)
 Number     Number              X              Y              Z
 -------------------------------------------------------------------
      1        1           0.000000000    0.016390778    0.012981324
      2        1           0.000000000   -0.202588784   -0.177967849
      3        8           0.000000000    0.186198006    0.164986525
 -------------------------------------------------------------------
 Cartesian Forces:  Max     0.202588784 RMS     0.122493625

 GradGradGradGradGradGradGradGradGradGradGradGradGradGradGradGradGradGrad
 Berny optimization.
 Search for a local minimum.
 Step number   1 out of a maximum of    2
 All quantities printed in internal units (Hartrees-Bohrs-Radians)
 Second derivative matrix not updated -- first step.
 The second derivative matrix:
                          X1        Y1        Z1        X2        Y2
           X1           1.00000
           Y1           0.00000   0.36664
           Z1           0.00000  -0.24592   0.23893
           X2           0.00000   0.00000   0.00000   1.00000
           Y2           0.00000  -0.02556  -0.03304   0.00000   0.53896
           Z2           0.00000   0.02433   0.03145   0.00000   0.49445
           X3           0.00000   0.00000   0.00000   0.00000   0.00000
           Y3           0.00000  -0.34109   0.27896   0.00000  -0.51341
           Z3           0.00000   0.22159  -0.27039   0.00000  -0.46141
                          Z2        X3        Y3        Z3
           Z2           0.58767
           X3           0.00000   1.00000
           Y3          -0.51877   0.00000   0.85450
           Z3          -0.61912   0.00000   0.23982   0.88951
 ITU=  0
     Eigenvalues ---    0.16495   0.94155   1.75579
 Quadratic step=3.444D-01 exceeds max=3.000D-01 adjusted using Lamda=-3.616D-02.
 Angle between NR and scaled steps=   4.83 degrees.
 Angle between quadratic step and forces=  48.61 degrees.
 Linear search not attempted -- first point.
 TrRot=  0.000000  0.030660 -0.003629  0.000000  0.000000  0.000000
 Variable       Old X    -DE/DX   Delta X   Delta X   Delta X     New X
                                 (Linear)    (Quad)   (Total)
    X1        0.00000   0.00000   0.00000   0.00000   0.00000   0.00000
    Y1        1.43349   0.01639   0.00000   0.11534   0.14600   1.57948
    Z1       -0.88704   0.01298   0.00000   0.07053   0.06690  -0.82015
    X2        0.00000   0.00000   0.00000   0.00000   0.00000   0.00000
    Y2       -1.05554  -0.20259   0.00000  -0.25762  -0.22696  -1.28250
    Z2       -0.88704  -0.17797   0.00000  -0.05368  -0.05731  -0.94436
    X3        0.00000   0.00000   0.00000   0.00000   0.00000   0.00000
    Y3        0.00000   0.18620   0.00000   0.05031   0.08097   0.08097
    Z3        0.22176   0.16499   0.00000  -0.00595  -0.00958   0.21218
         Item               Value     Threshold  Converged?
 Maximum Force            0.202589     0.000450     NO 
 RMS     Force            0.122494     0.000300     NO 
 Maximum Displacement     0.226961     0.001800     NO 
 RMS     Displacement     0.098451     0.001200     NO 
 Predicted change in Energy=-3.809672D-02
 GradGradGradGradGradGradGradGradGradGradGradGradGradGradGradGradGradGrad

 1\1\GINC-CCWSGE0853\Force\RB2PLYP-FC\def2TZVPP\H2O1\ALLOUCHE\16-May-20
 19\0\\# B2PLYP/def2tzvpp nosym scf(tight) force Pop=NPA\\xPert\\0,1\H,
 0.,0.758568,-0.469403\H,0.,-0.558568,-0.469403\O,0.,0.,0.117351\\Versi
 on=EM64L-G09RevD.01\HF=-76.297319\MP2=-76.378858\RMSD=5.720e-09\RMSF=1
 .225e-01\Dipole=0.,0.093617,-0.7915039\PG=CS [SG(H2O1)]\\@


 THE MOST BEAUTIFUL EXPERIENCE WE CAN HAVE IS THE MYSTERIOUS.
 IT IS THE FUNDAMENTAL EMOTION WHICH STANDS AT AT THE CRADLE 
 OF TRUE ART AND TRUE SCIENCE.

                                    -- ALBERT EINSTEIN
 Job cpu time:       0 days  0 hours  0 minutes 15.4 seconds.
 File lengths (MBytes):  RWF=      5 Int=      0 D2E=      0 Chk=      1 Scr=      1
 Normal termination of Gaussian 09 at Thu May 16 09:05:16 2019.
