 Entering Gaussian System, Link 0=/pbs/throng/ilm/sl6/allouche/Gaussian09D/g09/g09
 Initial command:
 /pbs/throng/ilm/sl6/allouche/Gaussian09D/g09/l1.exe "/scratch/6332033.1.long/Gau-31268.inp" -scrdir="/scratch/6332033.1.long/"
 Entering Link 1 = /pbs/throng/ilm/sl6/allouche/Gaussian09D/g09/l1.exe PID=     31269.
  
 Copyright (c) 1988,1990,1992,1993,1995,1998,2003,2009,2013,
            Gaussian, Inc.  All Rights Reserved.
  
 This is part of the Gaussian(R) 09 program.  It is based on
 the Gaussian(R) 03 system (copyright 2003, Gaussian, Inc.),
 the Gaussian(R) 98 system (copyright 1998, Gaussian, Inc.),
 the Gaussian(R) 94 system (copyright 1995, Gaussian, Inc.),
 the Gaussian 92(TM) system (copyright 1992, Gaussian, Inc.),
 the Gaussian 90(TM) system (copyright 1990, Gaussian, Inc.),
 the Gaussian 88(TM) system (copyright 1988, Gaussian, Inc.),
 the Gaussian 86(TM) system (copyright 1986, Carnegie Mellon
 University), and the Gaussian 82(TM) system (copyright 1983,
 Carnegie Mellon University). Gaussian is a federally registered
 trademark of Gaussian, Inc.
  
 This software contains proprietary and confidential information,
 including trade secrets, belonging to Gaussian, Inc.
  
 This software is provided under written license and may be
 used, copied, transmitted, or stored only in accord with that
 written license.
  
 The following legend is applicable only to US Government
 contracts under FAR:
  
                    RESTRICTED RIGHTS LEGEND
  
 Use, reproduction and disclosure by the US Government is
 subject to restrictions as set forth in subparagraphs (a)
 and (c) of the Commercial Computer Software - Restricted
 Rights clause in FAR 52.227-19.
  
 Gaussian, Inc.
 340 Quinnipiac St., Bldg. 40, Wallingford CT 06492
  
  
 ---------------------------------------------------------------
 Warning -- This program may not be used in any manner that
 competes with the business of Gaussian, Inc. or will provide
 assistance to any competitor of Gaussian, Inc.  The licensee
 of this program is prohibited from giving any competitor of
 Gaussian, Inc. access to this program.  By using this program,
 the user acknowledges that Gaussian, Inc. is engaged in the
 business of creating and licensing software in the field of
 computational chemistry and represents and warrants to the
 licensee that it is not a competitor of Gaussian, Inc. and that
 it will not use this program in any manner prohibited above.
 ---------------------------------------------------------------
  

 Cite this work as:
 Gaussian 09, Revision D.01,
 M. J. Frisch, G. W. Trucks, H. B. Schlegel, G. E. Scuseria, 
 M. A. Robb, J. R. Cheeseman, G. Scalmani, V. Barone, B. Mennucci, 
 G. A. Petersson, H. Nakatsuji, M. Caricato, X. Li, H. P. Hratchian, 
 A. F. Izmaylov, J. Bloino, G. Zheng, J. L. Sonnenberg, M. Hada, 
 M. Ehara, K. Toyota, R. Fukuda, J. Hasegawa, M. Ishida, T. Nakajima, 
 Y. Honda, O. Kitao, H. Nakai, T. Vreven, J. A. Montgomery, Jr., 
 J. E. Peralta, F. Ogliaro, M. Bearpark, J. J. Heyd, E. Brothers, 
 K. N. Kudin, V. N. Staroverov, T. Keith, R. Kobayashi, J. Normand, 
 K. Raghavachari, A. Rendell, J. C. Burant, S. S. Iyengar, J. Tomasi, 
 M. Cossi, N. Rega, J. M. Millam, M. Klene, J. E. Knox, J. B. Cross, 
 V. Bakken, C. Adamo, J. Jaramillo, R. Gomperts, R. E. Stratmann, 
 O. Yazyev, A. J. Austin, R. Cammi, C. Pomelli, J. W. Ochterski, 
 R. L. Martin, K. Morokuma, V. G. Zakrzewski, G. A. Voth, 
 P. Salvador, J. J. Dannenberg, S. Dapprich, A. D. Daniels, 
 O. Farkas, J. B. Foresman, J. V. Ortiz, J. Cioslowski, 
 and D. J. Fox, Gaussian, Inc., Wallingford CT, 2013.
 
 ******************************************
 Gaussian 09:  EM64L-G09RevD.01 24-Apr-2013
                16-May-2019 
 ******************************************
 -------------------------------------------------
 # B2PLYP/def2tzvpp nosym scf(tight) force Pop=NPA
 -------------------------------------------------
 1/10=7,30=1,38=1/1,3;
 2/12=2,15=1,17=6,18=5,40=1/2;
 3/5=44,7=202,11=9,16=1,25=1,30=1,71=1,74=-47/1,2,3;
 4//1;
 5/5=2,32=2,38=5/2;
 8/6=4,10=1/1;
 9/15=2,16=-3/6;
 10/5=1,31=1/2;
 6/7=2,8=2,9=2,10=2,18=1,40=-1/1,7;
 7/12=2,29=1,30=1/1,2,3,16;
 1/10=7,30=1/3;
 99//99;
 -----
 xPert
 -----
 Symbolic Z-matrix:
 Charge =  0 Multiplicity = 1
 H                     0.        0.75857  -0.4694 
 H                     0.       -0.75857  -0.4694 
 O                     0.        0.2       0.11735 
 

 GradGradGradGradGradGradGradGradGradGradGradGradGradGradGradGradGradGrad
 Berny optimization.
 Initialization pass.
 Trust Radius=3.00D-01 FncErr=1.00D-07 GrdErr=1.00D-07
 Number of steps in this run=      2 maximum allowed number of steps=      2.
 GradGradGradGradGradGradGradGradGradGradGradGradGradGradGradGradGradGrad

                          Input orientation:                          
 ---------------------------------------------------------------------
 Center     Atomic      Atomic             Coordinates (Angstroms)
 Number     Number       Type             X           Y           Z
 ---------------------------------------------------------------------
      1          1           0        0.000000    0.758568   -0.469403
      2          1           0        0.000000   -0.758568   -0.469403
      3          8           0        0.000000    0.200000    0.117351
 ---------------------------------------------------------------------
                    Distance matrix (angstroms):
                    1          2          3
     1  H    0.000000
     2  H    1.517136   0.000000
     3  O    0.810110   1.123892   0.000000
 Symmetry turned off by external request.
 Stoichiometry    H2O
 Framework group  CS[SG(H2O)]
 Deg. of freedom     3
 Full point group                 CS      NOp   2
 Rotational constants (GHZ):    916.5420460    389.8485927    273.5113190
 Standard basis: def2TZVPP (5D, 7F)
    59 basis functions,    85 primitive gaussians,    66 cartesian basis functions
     5 alpha electrons        5 beta electrons
       nuclear repulsion energy         9.3412792902 Hartrees.
 NAtoms=    3 NActive=    3 NUniq=    3 SFac= 1.00D+00 NAtFMM=   60 NAOKFM=F Big=F
 Integral buffers will be    131072 words long.
 Regular integral format.
 Two-electron integral symmetry is turned off.
 One-electron integrals computed using PRISM.
   1 Symmetry operations used in ECPInt.
 ECPInt:  NShTT=     276 NPrTT=     694 LenC2=     277 LenP2D=     681.
 LDataN:  DoStor=T MaxTD1= 6 Len=  172
 NBasis=    59 RedAO= T EigKep=  1.73D-03  NBF=    59
 NBsUse=    59 1.00D-06 EigRej= -1.00D+00 NBFU=    59
 ExpMin= 1.03D-01 ExpMax= 2.70D+04 ExpMxC= 9.22D+02 IAcc=1 IRadAn=         1 AccDes= 0.00D+00
 Harris functional with IExCor=  419 and IRadAn=       1 diagonalized for initial guess.
 HarFok:  IExCor=  419 AccDes= 0.00D+00 IRadAn=         1 IDoV= 1 UseB2=F ITyADJ=14
 ICtDFT=  3500011 ScaDFX=  1.000000  1.000000  1.000000  1.000000
 FoFCou: FMM=F IPFlag=           0 FMFlag=      100000 FMFlg1=           0
         NFxFlg=           0 DoJE=T BraDBF=F KetDBF=T FulRan=T
         wScrn=  0.000000 ICntrl=     500 IOpCl=  0 I1Cent=   200000004 NGrid=           0
         NMat0=    1 NMatS0=      1 NMatT0=    0 NMatD0=    1 NMtDS0=    0 NMtDT0=    0
 Symmetry not used in FoFCou.
 Keep R1 ints in memory in canonical form, NReq=3557621.
 Requested convergence on RMS density matrix=1.00D-08 within 128 cycles.
 Requested convergence on MAX density matrix=1.00D-06.
 Requested convergence on             energy=1.00D-06.
 No special actions if energy rises.
 Integral accuracy reduced to 1.0D-05 until final iterations.
 Initial convergence to 1.0D-05 achieved.  Increase integral accuracy.
 SCF Done:  E(RB2PLYP) =  -76.2792787429     A.U. after   10 cycles
            NFock= 10  Conv=0.97D-08     -V/T= 2.0000
 DoSCS=T DFT=T ScalE2(SS,OS)=  0.270000  0.270000
 ExpMin= 1.03D-01 ExpMax= 2.70D+04 ExpMxC= 9.22D+02 IAcc=3 IRadAn=         5 AccDes= 0.00D+00
 HarFok:  IExCor=  205 AccDes= 0.00D+00 IRadAn=         5 IDoV=-2 UseB2=F ITyADJ=14
 ICtDFT= 12500011 ScaDFX=  1.000000  1.000000  1.000000  1.000000
 Range of M.O.s used for correlation:     2    59
 NBasis=    59 NAE=     5 NBE=     5 NFC=     1 NFV=     0
 NROrb=     58 NOA=     4 NOB=     4 NVA=    54 NVB=    54
 DoSCS=T DFT=T ScalE2(SS,OS)=  0.270000  0.270000
 Fully direct method using O(ONN) memory.
 JobTyp=1 Pass  1:  I=   2 to   5 NPSUse=  1 ParTrn=F ParDer=F DoDerP=T.
 Spin components of T(2) and E(2):
     alpha-alpha T2 =       0.1168626603D-01 E2=     -0.1020245707D-01
     alpha-beta  T2 =       0.7014159349D-01 E2=     -0.6349333580D-01
     beta-beta   T2 =       0.1168626603D-01 E2=     -0.1020245707D-01
 E2(B2PLYP) =    -0.8389824994D-01 E(B2PLYP) =    -0.76363176992829D+02
          IDoAtm=111
          Differentiating once with respect to electric field.
                with respect to dipole field.
          Differentiating once with respect to nuclear coordinates.
 Keep R1 ints in memory in canonical form, NReq=3533332.
          There are     1 degrees of freedom in the 1st order CPHF.  IDoFFX=0 NUNeed=     1.
 LinEq1:  Iter=  0 NonCon=     1 RMS=2.03D-03 Max=1.62D-02 NDo=     1
 AX will form     1 AO Fock derivatives at one time.
 LinEq1:  Iter=  1 NonCon=     1 RMS=2.76D-04 Max=2.04D-03 NDo=     1
 LinEq1:  Iter=  2 NonCon=     1 RMS=6.64D-05 Max=3.83D-04 NDo=     1
 LinEq1:  Iter=  3 NonCon=     1 RMS=2.89D-05 Max=1.95D-04 NDo=     1
 LinEq1:  Iter=  4 NonCon=     1 RMS=8.21D-06 Max=4.11D-05 NDo=     1
 LinEq1:  Iter=  5 NonCon=     1 RMS=7.34D-07 Max=3.86D-06 NDo=     1
 LinEq1:  Iter=  6 NonCon=     1 RMS=1.26D-07 Max=6.63D-07 NDo=     1
 LinEq1:  Iter=  7 NonCon=     1 RMS=2.10D-08 Max=1.80D-07 NDo=     1
 LinEq1:  Iter=  8 NonCon=     1 RMS=2.12D-09 Max=1.90D-08 NDo=     1
 LinEq1:  Iter=  9 NonCon=     1 RMS=1.98D-10 Max=1.10D-09 NDo=     1
 LinEq1:  Iter= 10 NonCon=     0 RMS=2.22D-11 Max=1.38D-10 NDo=     1
 Linear equations converged to 1.000D-10 1.000D-09 after    10 iterations.
 End of Minotr F.D. properties file   721 does not exist.
 End of Minotr F.D. properties file   722 does not exist.
 End of Minotr F.D. properties file   788 does not exist.

 **********************************************************************

            Population analysis using the SCF density.

 **********************************************************************

 Alpha  occ. eigenvalues --  -19.72350  -1.17280  -0.60377  -0.47117  -0.39787
 Alpha virt. eigenvalues --    0.04584   0.13466   0.37441   0.45774   0.49018
 Alpha virt. eigenvalues --    0.52210   0.62946   0.64620   0.70647   0.74381
 Alpha virt. eigenvalues --    0.84562   1.07733   1.17991   1.39545   1.74134
 Alpha virt. eigenvalues --    1.80124   1.94106   1.98583   2.03583   2.30615
 Alpha virt. eigenvalues --    2.52199   2.67602   2.86401   3.14417   3.17116
 Alpha virt. eigenvalues --    3.27616   3.40858   3.45166   3.56559   3.73540
 Alpha virt. eigenvalues --    3.74657   3.77040   3.80695   3.95620   4.18257
 Alpha virt. eigenvalues --    4.29664   4.38894   4.60786   4.90535   4.93168
 Alpha virt. eigenvalues --    5.45634   5.83760   6.13483   6.24381   6.52291
 Alpha virt. eigenvalues --    6.59275   6.75284   6.87755   7.14296   7.41441
 Alpha virt. eigenvalues --    7.68055   7.75716   8.30982  44.30915
          Condensed to atoms (all electrons):
               1          2          3
     1  H    0.537902  -0.026967   0.384892
     2  H   -0.026967   0.468493   0.299864
     3  O    0.384892   0.299864   7.678026
 Mulliken charges:
               1
     1  H    0.104173
     2  H    0.258609
     3  O   -0.362782
 Sum of Mulliken charges =   0.00000
 Mulliken charges with hydrogens summed into heavy atoms:
               1
     3  O    0.000000
 Electronic spatial extent (au):  <R**2>=             20.6608
 Charge=              0.0000 electrons
 Dipole moment (field-independent basis, Debye):
    X=              0.0000    Y=             -0.4835    Z=             -2.0006  Tot=              2.0582
 Quadrupole moment (field-independent basis, Debye-Ang):
   XX=             -7.4629   YY=             -4.4081   ZZ=             -6.2079
   XY=              0.0000   XZ=              0.0000   YZ=             -0.1447
 Traceless Quadrupole moment (field-independent basis, Debye-Ang):
   XX=             -1.4366   YY=              1.6182   ZZ=             -0.1816
   XY=              0.0000   XZ=              0.0000   YZ=             -0.1447
 Octapole moment (field-independent basis, Debye-Ang**2):
  XXX=              0.0000  YYY=             -2.9072  ZZZ=             -1.1912  XYY=              0.0000
  XXY=             -1.0956  XXZ=             -0.3037  XZZ=              0.0000  YZZ=             -1.0269
  YYZ=             -1.3759  XYZ=              0.0000
 Hexadecapole moment (field-independent basis, Debye-Ang**3):
 XXXX=             -6.2183 YYYY=             -7.4220 ZZZZ=             -6.9712 XXXY=              0.0000
 XXXZ=              0.0000 YYYX=              0.0000 YYYZ=             -0.5781 ZZZX=              0.0000
 ZZZY=             -0.7216 XXYY=             -2.6197 XXZZ=             -2.2533 YYZZ=             -2.0926
 XXYZ=             -0.2470 YYXZ=              0.0000 ZZXY=              0.0000
 N-N= 9.341279290175D+00 E-N=-1.995578156545D+02  KE= 7.627619162659D+01
 ******************************Gaussian NBO Version 3.1******************************
             N A T U R A L   A T O M I C   O R B I T A L   A N D
          N A T U R A L   B O N D   O R B I T A L   A N A L Y S I S
 ******************************Gaussian NBO Version 3.1******************************
       /RESON  / : Allow strongly delocalized NBO set

 Analyzing the SCF density

 Job title: xPert                                                           

 Storage needed:     10799 in NPA ( 536870849 available)


 NATURAL POPULATIONS:  Natural atomic orbital occupancies 
                                                          
   NAO  Atom  No  lang   Type(AO)    Occupancy      Energy
 ----------------------------------------------------------
     1    H    1  S      Val( 1S)     0.57150       0.42215
     2    H    1  S      Ryd( 3S)     0.00139       1.31369
     3    H    1  S      Ryd( 2S)     0.00009       0.94695
     4    H    1  px     Ryd( 2p)     0.00243       2.18104
     5    H    1  px     Ryd( 3p)     0.00000       3.44181
     6    H    1  py     Ryd( 2p)     0.00060       2.80830
     7    H    1  py     Ryd( 3p)     0.00078       3.63158
     8    H    1  pz     Ryd( 2p)     0.00114       2.78355
     9    H    1  pz     Ryd( 3p)     0.00107       3.60377
    10    H    1  dxy    Ryd( 3d)     0.00002       3.84036
    11    H    1  dxz    Ryd( 3d)     0.00001       3.86553
    12    H    1  dyz    Ryd( 3d)     0.00005       4.32921
    13    H    1  dx2y2  Ryd( 3d)     0.00013       3.95472
    14    H    1  dz2    Ryd( 3d)     0.00002       4.10337

    15    H    2  S      Val( 1S)     0.54636       0.00559
    16    H    2  S      Ryd( 2S)     0.00107       0.83457
    17    H    2  S      Ryd( 3S)     0.00004       1.84597
    18    H    2  px     Ryd( 2p)     0.00166       1.32465
    19    H    2  px     Ryd( 3p)     0.00001       3.47752
    20    H    2  py     Ryd( 2p)     0.00042       2.41410
    21    H    2  py     Ryd( 3p)     0.00029       3.86938
    22    H    2  pz     Ryd( 2p)     0.00128       1.72080
    23    H    2  pz     Ryd( 3p)     0.00027       3.64621
    24    H    2  dxy    Ryd( 3d)     0.00002       3.76696
    25    H    2  dxz    Ryd( 3d)     0.00000       3.50193
    26    H    2  dyz    Ryd( 3d)     0.00002       4.00367
    27    H    2  dx2y2  Ryd( 3d)     0.00007       3.86825
    28    H    2  dz2    Ryd( 3d)     0.00001       3.71245

    29    O    3  S      Cor( 1S)     1.99976     -19.47536
    30    O    3  S      Val( 2S)     1.72998      -1.04635
    31    O    3  S      Ryd( 3S)     0.00087       2.55600
    32    O    3  S      Ryd( 4S)     0.00009       2.66399
    33    O    3  S      Ryd( 5S)     0.00000      43.19036
    34    O    3  px     Val( 2p)     1.99175      -0.39154
    35    O    3  px     Ryd( 3p)     0.00126       0.71834
    36    O    3  px     Ryd( 4p)     0.00000       2.53458
    37    O    3  py     Val( 2p)     1.43511      -0.28665
    38    O    3  py     Ryd( 3p)     0.00294       0.78280
    39    O    3  py     Ryd( 4p)     0.00008       3.30156
    40    O    3  pz     Val( 2p)     1.69772      -0.32996
    41    O    3  pz     Ryd( 3p)     0.00102       0.73641
    42    O    3  pz     Ryd( 4p)     0.00023       3.12870
    43    O    3  dxy    Ryd( 3d)     0.00002       2.29614
    44    O    3  dxy    Ryd( 4d)     0.00000       6.52089
    45    O    3  dxz    Ryd( 3d)     0.00257       2.25858
    46    O    3  dxz    Ryd( 4d)     0.00003       6.50688
    47    O    3  dyz    Ryd( 3d)     0.00192       3.75654
    48    O    3  dyz    Ryd( 4d)     0.00017       7.00324
    49    O    3  dx2y2  Ryd( 3d)     0.00070       2.69272
    50    O    3  dx2y2  Ryd( 4d)     0.00000       6.65135
    51    O    3  dz2    Ryd( 3d)     0.00259       2.64762
    52    O    3  dz2    Ryd( 4d)     0.00003       6.64684
    53    O    3  f(0)   Ryd( 4f)     0.00003       5.97742
    54    O    3  f(C1)  Ryd( 4f)     0.00004       5.67370
    55    O    3  f(S1)  Ryd( 4f)     0.00003       6.39249
    56    O    3  f(C2)  Ryd( 4f)     0.00005       6.24195
    57    O    3  f(S2)  Ryd( 4f)     0.00002       5.97204
    58    O    3  f(C3)  Ryd( 4f)     0.00016       5.78493
    59    O    3  f(S3)  Ryd( 4f)     0.00005       5.80784

 WARNING:  Population inversion found on atom  H    1


 Summary of Natural Population Analysis:                  
                                                          
                                       Natural Population 
                Natural  -----------------------------------------------
    Atom  No    Charge         Core      Valence    Rydberg      Total
 -----------------------------------------------------------------------
      H    1    0.42077      0.00000     0.57150    0.00774     0.57923
      H    2    0.44847      0.00000     0.54636    0.00517     0.55153
      O    3   -0.86924      1.99976     6.85456    0.01492     8.86924
 =======================================================================
   * Total *    0.00000      1.99976     7.97241    0.02783    10.00000

                                 Natural Population      
 --------------------------------------------------------
   Core                       1.99976 ( 99.9878% of   2)
   Valence                    7.97241 ( 99.6552% of   8)
   Natural Minimal Basis      9.97217 ( 99.7217% of  10)
   Natural Rydberg Basis      0.02783 (  0.2783% of  10)
 --------------------------------------------------------

    Atom  No          Natural Electron Configuration
 ----------------------------------------------------------------------------
      H    1            1S( 0.57)
      H    2            1S( 0.55)
      O    3      [core]2S( 1.73)2p( 5.12)3p( 0.01)3d( 0.01)


 NBO analysis skipped by request.
   1 Symmetry operations used in ECPInt.
 ECPInt:  NShTT=     276 NPrTT=     694 LenC2=     277 LenP2D=     681.
 LDataN:  DoStor=T MaxTD1= 7 Len=  274
 Calling FoFJK, ICntrl=  10002127 FMM=F ISym2X=0 I1Cent= 0 IOpClX= 0 NMat=1 NMatS=1 NMatT=0.
 -------------------------------------------------------------------
 Center     Atomic                   Forces (Hartrees/Bohr)
 Number     Number              X              Y              Z
 -------------------------------------------------------------------
      1        1           0.000000000    0.185624393   -0.191388477
      2        1           0.000000000    0.083816851    0.053402863
      3        8           0.000000000   -0.269441244    0.137985614
 -------------------------------------------------------------------
 Cartesian Forces:  Max     0.269441244 RMS     0.138484539

 GradGradGradGradGradGradGradGradGradGradGradGradGradGradGradGradGradGrad
 Berny optimization.
 Search for a local minimum.
 Step number   1 out of a maximum of    2
 All quantities printed in internal units (Hartrees-Bohrs-Radians)
 Second derivative matrix not updated -- first step.
 The second derivative matrix:
                          X1        Y1        Z1        X2        Y2
           X1           1.00000
           Y1           0.00000   0.53896
           Z1           0.00000  -0.49445   0.58767
           X2           0.00000   0.00000   0.00000   1.00000
           Y2           0.00000  -0.01861  -0.01771   0.00000   0.23643
           Z2           0.00000   0.03040   0.02894   0.00000   0.12301
           X3           0.00000   0.00000   0.00000   0.00000   0.00000
           Y3           0.00000  -0.52036   0.51216   0.00000  -0.21782
           Z3           0.00000   0.46405  -0.61661   0.00000  -0.10529
                          Z2        X3        Y3        Z3
           Z2           0.11077
           X3           0.00000   1.00000
           Y3          -0.15341   0.00000   0.73818
           Z3          -0.13971   0.00000  -0.35875   0.75631
 ITU=  0
     Eigenvalues ---    0.14871   0.54006   1.75200
 Quadratic step=3.057D-01 exceeds max=3.000D-01 adjusted using Lamda=-1.264D-02.
 Angle between NR and scaled steps=   0.65 degrees.
 Angle between quadratic step and forces=  38.45 degrees.
 Linear search not attempted -- first point.
 TrRot=  0.000000 -0.066338  0.001685  0.000000  0.000000  0.000000
 Variable       Old X    -DE/DX   Delta X   Delta X   Delta X     New X
                                 (Linear)    (Quad)   (Total)
    X1        0.00000   0.00000   0.00000   0.00000   0.00000   0.00000
    Y1        1.43349   0.18562   0.00000   0.12096   0.05462   1.48811
    Z1       -0.88704  -0.19139   0.00000  -0.12401  -0.12232  -1.00936
    X2        0.00000   0.00000   0.00000   0.00000   0.00000   0.00000
    Y2       -1.43349   0.08382   0.00000   0.18690   0.12056  -1.31293
    Z2       -0.88704   0.05340   0.00000   0.11619   0.11787  -0.76917
    X3        0.00000   0.00000   0.00000   0.00000   0.00000   0.00000
    Y3        0.37795  -0.26944   0.00000  -0.10884  -0.17518   0.20276
    Z3        0.22176   0.13799   0.00000   0.00276   0.00445   0.22621
         Item               Value     Threshold  Converged?
 Maximum Force            0.269441     0.000450     NO 
 RMS     Force            0.138485     0.000300     NO 
 Maximum Displacement     0.175183     0.001800     NO 
 RMS     Displacement     0.092546     0.001200     NO 
 Predicted change in Energy=-4.945329D-02
 GradGradGradGradGradGradGradGradGradGradGradGradGradGradGradGradGradGrad

 1\1\GINC-CCWSGE0607\Force\RB2PLYP-FC\def2TZVPP\H2O1\ALLOUCHE\16-May-20
 19\0\\# B2PLYP/def2tzvpp nosym scf(tight) force Pop=NPA\\xPert\\0,1\H,
 0.,0.758568,-0.469403\H,0.,-0.758568,-0.469403\O,0.,0.2,0.117351\\Vers
 ion=EM64L-G09RevD.01\HF=-76.2792787\MP2=-76.363177\RMSD=9.656e-09\RMSF
 =1.385e-01\Dipole=0.,-0.1819316,-0.7696064\PG=CS [SG(H2O1)]\\@


 THE SCIENTIFIC THEORIST IS NOT TO BE ENVIED. FOR NATURE, OR MORE
 PRECISELY EXPERIMENT, IS AN INEXORABLE AND NOT VERY FRIENDLY JUDGE OF HIS
 WORK.  IT NEVER SAYS "YES" TO A THEORY. IN THE MOST FAVORABLE CASES
 IT SAYS "MAYBE", AND IN THE GREAT MAJORITY OF CASES SIMPLY "NO"...
 PROBABLY EVERY THEORY WILL SOME DAY EXPERIENCE ITS "NO" - MOST
 THEORIES, SOON AFTER CONCEPTION.  -- A.EINSTEIN, NOV 11, 1922.
 Job cpu time:       0 days  0 hours  0 minutes 14.5 seconds.
 File lengths (MBytes):  RWF=      5 Int=      0 D2E=      0 Chk=      1 Scr=      1
 Normal termination of Gaussian 09 at Thu May 16 09:05:13 2019.
