 Entering Gaussian System, Link 0=/pbs/throng/ilm/sl6/allouche/Gaussian09D/g09/g09
 Initial command:
 /pbs/throng/ilm/sl6/allouche/Gaussian09D/g09/l1.exe "/scratch/6332034.1.long/Gau-134655.inp" -scrdir="/scratch/6332034.1.long/"
 Entering Link 1 = /pbs/throng/ilm/sl6/allouche/Gaussian09D/g09/l1.exe PID=    134656.
  
 Copyright (c) 1988,1990,1992,1993,1995,1998,2003,2009,2013,
            Gaussian, Inc.  All Rights Reserved.
  
 This is part of the Gaussian(R) 09 program.  It is based on
 the Gaussian(R) 03 system (copyright 2003, Gaussian, Inc.),
 the Gaussian(R) 98 system (copyright 1998, Gaussian, Inc.),
 the Gaussian(R) 94 system (copyright 1995, Gaussian, Inc.),
 the Gaussian 92(TM) system (copyright 1992, Gaussian, Inc.),
 the Gaussian 90(TM) system (copyright 1990, Gaussian, Inc.),
 the Gaussian 88(TM) system (copyright 1988, Gaussian, Inc.),
 the Gaussian 86(TM) system (copyright 1986, Carnegie Mellon
 University), and the Gaussian 82(TM) system (copyright 1983,
 Carnegie Mellon University). Gaussian is a federally registered
 trademark of Gaussian, Inc.
  
 This software contains proprietary and confidential information,
 including trade secrets, belonging to Gaussian, Inc.
  
 This software is provided under written license and may be
 used, copied, transmitted, or stored only in accord with that
 written license.
  
 The following legend is applicable only to US Government
 contracts under FAR:
  
                    RESTRICTED RIGHTS LEGEND
  
 Use, reproduction and disclosure by the US Government is
 subject to restrictions as set forth in subparagraphs (a)
 and (c) of the Commercial Computer Software - Restricted
 Rights clause in FAR 52.227-19.
  
 Gaussian, Inc.
 340 Quinnipiac St., Bldg. 40, Wallingford CT 06492
  
  
 ---------------------------------------------------------------
 Warning -- This program may not be used in any manner that
 competes with the business of Gaussian, Inc. or will provide
 assistance to any competitor of Gaussian, Inc.  The licensee
 of this program is prohibited from giving any competitor of
 Gaussian, Inc. access to this program.  By using this program,
 the user acknowledges that Gaussian, Inc. is engaged in the
 business of creating and licensing software in the field of
 computational chemistry and represents and warrants to the
 licensee that it is not a competitor of Gaussian, Inc. and that
 it will not use this program in any manner prohibited above.
 ---------------------------------------------------------------
  

 Cite this work as:
 Gaussian 09, Revision D.01,
 M. J. Frisch, G. W. Trucks, H. B. Schlegel, G. E. Scuseria, 
 M. A. Robb, J. R. Cheeseman, G. Scalmani, V. Barone, B. Mennucci, 
 G. A. Petersson, H. Nakatsuji, M. Caricato, X. Li, H. P. Hratchian, 
 A. F. Izmaylov, J. Bloino, G. Zheng, J. L. Sonnenberg, M. Hada, 
 M. Ehara, K. Toyota, R. Fukuda, J. Hasegawa, M. Ishida, T. Nakajima, 
 Y. Honda, O. Kitao, H. Nakai, T. Vreven, J. A. Montgomery, Jr., 
 J. E. Peralta, F. Ogliaro, M. Bearpark, J. J. Heyd, E. Brothers, 
 K. N. Kudin, V. N. Staroverov, T. Keith, R. Kobayashi, J. Normand, 
 K. Raghavachari, A. Rendell, J. C. Burant, S. S. Iyengar, J. Tomasi, 
 M. Cossi, N. Rega, J. M. Millam, M. Klene, J. E. Knox, J. B. Cross, 
 V. Bakken, C. Adamo, J. Jaramillo, R. Gomperts, R. E. Stratmann, 
 O. Yazyev, A. J. Austin, R. Cammi, C. Pomelli, J. W. Ochterski, 
 R. L. Martin, K. Morokuma, V. G. Zakrzewski, G. A. Voth, 
 P. Salvador, J. J. Dannenberg, S. Dapprich, A. D. Daniels, 
 O. Farkas, J. B. Foresman, J. V. Ortiz, J. Cioslowski, 
 and D. J. Fox, Gaussian, Inc., Wallingford CT, 2013.
 
 ******************************************
 Gaussian 09:  EM64L-G09RevD.01 24-Apr-2013
                16-May-2019 
 ******************************************
 -------------------------------------------------
 # B2PLYP/def2tzvpp nosym scf(tight) force Pop=NPA
 -------------------------------------------------
 1/10=7,30=1,38=1/1,3;
 2/12=2,15=1,17=6,18=5,40=1/2;
 3/5=44,7=202,11=9,16=1,25=1,30=1,71=1,74=-47/1,2,3;
 4//1;
 5/5=2,32=2,38=5/2;
 8/6=4,10=1/1;
 9/15=2,16=-3/6;
 10/5=1,31=1/2;
 6/7=2,8=2,9=2,10=2,18=1,40=-1/1,7;
 7/12=2,29=1,30=1/1,2,3,16;
 1/10=7,30=1/3;
 99//99;
 -----
 xPert
 -----
 Symbolic Z-matrix:
 Charge =  0 Multiplicity = 1
 H                     0.        0.75857  -0.2694 
 H                     0.       -0.75857  -0.4694 
 O                     0.        0.        0.11735 
 

 GradGradGradGradGradGradGradGradGradGradGradGradGradGradGradGradGradGrad
 Berny optimization.
 Initialization pass.
 Trust Radius=3.00D-01 FncErr=1.00D-07 GrdErr=1.00D-07
 Number of steps in this run=      2 maximum allowed number of steps=      2.
 GradGradGradGradGradGradGradGradGradGradGradGradGradGradGradGradGradGrad

                          Input orientation:                          
 ---------------------------------------------------------------------
 Center     Atomic      Atomic             Coordinates (Angstroms)
 Number     Number       Type             X           Y           Z
 ---------------------------------------------------------------------
      1          1           0        0.000000    0.758568   -0.269403
      2          1           0        0.000000   -0.758568   -0.469403
      3          8           0        0.000000    0.000000    0.117351
 ---------------------------------------------------------------------
                    Distance matrix (angstroms):
                    1          2          3
     1  H    0.000000
     2  H    1.530262   0.000000
     3  O    0.851472   0.959013   0.000000
 Symmetry turned off by external request.
 Stoichiometry    H2O
 Framework group  CS[SG(H2O)]
 Deg. of freedom     3
 Full point group                 CS      NOp   2
 Rotational constants (GHZ):   1223.7524714    424.2753901    315.0481065
 Standard basis: def2TZVPP (5D, 7F)
    59 basis functions,    85 primitive gaussians,    66 cartesian basis functions
     5 alpha electrons        5 beta electrons
       nuclear repulsion energy         9.7320404248 Hartrees.
 NAtoms=    3 NActive=    3 NUniq=    3 SFac= 1.00D+00 NAtFMM=   60 NAOKFM=F Big=F
 Integral buffers will be    131072 words long.
 Regular integral format.
 Two-electron integral symmetry is turned off.
 One-electron integrals computed using PRISM.
   1 Symmetry operations used in ECPInt.
 ECPInt:  NShTT=     276 NPrTT=     694 LenC2=     277 LenP2D=     681.
 LDataN:  DoStor=T MaxTD1= 6 Len=  172
 NBasis=    59 RedAO= T EigKep=  1.70D-03  NBF=    59
 NBsUse=    59 1.00D-06 EigRej= -1.00D+00 NBFU=    59
 ExpMin= 1.03D-01 ExpMax= 2.70D+04 ExpMxC= 9.22D+02 IAcc=1 IRadAn=         1 AccDes= 0.00D+00
 Harris functional with IExCor=  419 and IRadAn=       1 diagonalized for initial guess.
 HarFok:  IExCor=  419 AccDes= 0.00D+00 IRadAn=         1 IDoV= 1 UseB2=F ITyADJ=14
 ICtDFT=  3500011 ScaDFX=  1.000000  1.000000  1.000000  1.000000
 FoFCou: FMM=F IPFlag=           0 FMFlag=      100000 FMFlg1=           0
         NFxFlg=           0 DoJE=T BraDBF=F KetDBF=T FulRan=T
         wScrn=  0.000000 ICntrl=     500 IOpCl=  0 I1Cent=   200000004 NGrid=           0
         NMat0=    1 NMatS0=      1 NMatT0=    0 NMatD0=    1 NMtDS0=    0 NMtDT0=    0
 Symmetry not used in FoFCou.
 Keep R1 ints in memory in canonical form, NReq=3557649.
 Requested convergence on RMS density matrix=1.00D-08 within 128 cycles.
 Requested convergence on MAX density matrix=1.00D-06.
 Requested convergence on             energy=1.00D-06.
 No special actions if energy rises.
 Integral accuracy reduced to 1.0D-05 until final iterations.
 Initial convergence to 1.0D-05 achieved.  Increase integral accuracy.
 SCF Done:  E(RB2PLYP) =  -76.3156028402     A.U. after   10 cycles
            NFock= 10  Conv=0.70D-08     -V/T= 1.9994
 DoSCS=T DFT=T ScalE2(SS,OS)=  0.270000  0.270000
 ExpMin= 1.03D-01 ExpMax= 2.70D+04 ExpMxC= 9.22D+02 IAcc=3 IRadAn=         5 AccDes= 0.00D+00
 HarFok:  IExCor=  205 AccDes= 0.00D+00 IRadAn=         5 IDoV=-2 UseB2=F ITyADJ=14
 ICtDFT= 12500011 ScaDFX=  1.000000  1.000000  1.000000  1.000000
 Range of M.O.s used for correlation:     2    59
 NBasis=    59 NAE=     5 NBE=     5 NFC=     1 NFV=     0
 NROrb=     58 NOA=     4 NOB=     4 NVA=    54 NVB=    54
 DoSCS=T DFT=T ScalE2(SS,OS)=  0.270000  0.270000
 Fully direct method using O(ONN) memory.
 JobTyp=1 Pass  1:  I=   2 to   5 NPSUse=  1 ParTrn=F ParDer=F DoDerP=T.
 Spin components of T(2) and E(2):
     alpha-alpha T2 =       0.1083380329D-01 E2=     -0.1000170713D-01
     alpha-beta  T2 =       0.6240278605D-01 E2=     -0.6162963358D-01
     beta-beta   T2 =       0.1083380329D-01 E2=     -0.1000170713D-01
 E2(B2PLYP) =    -0.8163304784D-01 E(B2PLYP) =    -0.76397235888086D+02
          IDoAtm=111
          Differentiating once with respect to electric field.
                with respect to dipole field.
          Differentiating once with respect to nuclear coordinates.
 Keep R1 ints in memory in canonical form, NReq=3533351.
          There are     1 degrees of freedom in the 1st order CPHF.  IDoFFX=0 NUNeed=     1.
 LinEq1:  Iter=  0 NonCon=     1 RMS=1.69D-03 Max=1.36D-02 NDo=     1
 AX will form     1 AO Fock derivatives at one time.
 LinEq1:  Iter=  1 NonCon=     1 RMS=1.57D-04 Max=1.09D-03 NDo=     1
 LinEq1:  Iter=  2 NonCon=     1 RMS=3.43D-05 Max=2.42D-04 NDo=     1
 LinEq1:  Iter=  3 NonCon=     1 RMS=1.46D-05 Max=9.62D-05 NDo=     1
 LinEq1:  Iter=  4 NonCon=     1 RMS=4.05D-06 Max=2.32D-05 NDo=     1
 LinEq1:  Iter=  5 NonCon=     1 RMS=3.33D-07 Max=2.36D-06 NDo=     1
 LinEq1:  Iter=  6 NonCon=     1 RMS=7.91D-08 Max=6.14D-07 NDo=     1
 LinEq1:  Iter=  7 NonCon=     1 RMS=1.16D-08 Max=9.18D-08 NDo=     1
 LinEq1:  Iter=  8 NonCon=     1 RMS=1.04D-09 Max=6.17D-09 NDo=     1
 LinEq1:  Iter=  9 NonCon=     0 RMS=8.31D-11 Max=7.08D-10 NDo=     1
 Linear equations converged to 1.000D-10 1.000D-09 after     9 iterations.
 End of Minotr F.D. properties file   721 does not exist.
 End of Minotr F.D. properties file   722 does not exist.
 End of Minotr F.D. properties file   788 does not exist.

 **********************************************************************

            Population analysis using the SCF density.

 **********************************************************************

 Alpha  occ. eigenvalues --  -19.71165  -1.17472  -0.65455  -0.45759  -0.39860
 Alpha virt. eigenvalues --    0.06754   0.13981   0.44625   0.45128   0.49130
 Alpha virt. eigenvalues --    0.50069   0.61662   0.63367   0.73834   0.79582
 Alpha virt. eigenvalues --    0.89856   1.07446   1.25361   1.38536   1.73708
 Alpha virt. eigenvalues --    1.82116   1.83887   1.94104   1.94559   2.38007
 Alpha virt. eigenvalues --    2.50575   2.71452   2.87135   3.27786   3.35389
 Alpha virt. eigenvalues --    3.35672   3.38423   3.47542   3.66195   3.71779
 Alpha virt. eigenvalues --    3.76062   3.77479   3.77709   4.24173   4.27094
 Alpha virt. eigenvalues --    4.37164   4.38716   4.81209   4.98698   5.03043
 Alpha virt. eigenvalues --    5.26861   5.80413   6.20141   6.58744   6.63210
 Alpha virt. eigenvalues --    6.71178   6.83530   7.15388   7.23208   7.27432
 Alpha virt. eigenvalues --    7.68093   7.70416   8.22879  44.41017
          Condensed to atoms (all electrons):
               1          2          3
     1  H    0.480178  -0.035625   0.399665
     2  H   -0.035625   0.445262   0.361323
     3  O    0.399665   0.361323   7.623834
 Mulliken charges:
               1
     1  H    0.155782
     2  H    0.229040
     3  O   -0.384822
 Sum of Mulliken charges =   0.00000
 Mulliken charges with hydrogens summed into heavy atoms:
               1
     3  O    0.000000
 Electronic spatial extent (au):  <R**2>=             18.8566
 Charge=              0.0000 electrons
 Dipole moment (field-independent basis, Debye):
    X=              0.0000    Y=              0.0514    Z=             -1.7948  Tot=              1.7956
 Quadrupole moment (field-independent basis, Debye-Ang):
   XX=             -7.3600   YY=             -4.0359   ZZ=             -6.5030
   XY=              0.0000   XZ=              0.0000   YZ=              0.3612
 Traceless Quadrupole moment (field-independent basis, Debye-Ang):
   XX=             -1.3936   YY=              1.9304   ZZ=             -0.5367
   XY=              0.0000   XZ=              0.0000   YZ=              0.3612
 Octapole moment (field-independent basis, Debye-Ang**2):
  XXX=              0.0000  YYY=              0.1502  ZZZ=             -1.4999  XYY=              0.0000
  XXY=              0.0658  XXZ=             -0.4500  XZZ=              0.0000  YZZ=             -0.1622
  YYZ=             -1.2680  XYZ=              0.0000
 Hexadecapole moment (field-independent basis, Debye-Ang**3):
 XXXX=             -6.0848 YYYY=             -5.4005 ZZZZ=             -6.7169 XXXY=              0.0000
 XXXZ=              0.0000 YYYX=              0.0000 YYYZ=              0.0412 ZZZX=              0.0000
 ZZZY=             -0.0304 XXYY=             -2.2441 XXZZ=             -2.1663 YYZZ=             -1.8844
 XXYZ=             -0.0694 YYXZ=              0.0000 ZZXY=              0.0000
 N-N= 9.732040424807D+00 E-N=-2.004269217373D+02  KE= 7.636009169979D+01
 ******************************Gaussian NBO Version 3.1******************************
             N A T U R A L   A T O M I C   O R B I T A L   A N D
          N A T U R A L   B O N D   O R B I T A L   A N A L Y S I S
 ******************************Gaussian NBO Version 3.1******************************
       /RESON  / : Allow strongly delocalized NBO set

 Analyzing the SCF density

 Job title: xPert                                                           

 Storage needed:     10799 in NPA ( 536870849 available)


 NATURAL POPULATIONS:  Natural atomic orbital occupancies 
                                                          
   NAO  Atom  No  lang   Type(AO)    Occupancy      Energy
 ----------------------------------------------------------
     1    H    1  S      Val( 1S)     0.54572       0.33517
     2    H    1  S      Ryd( 2S)     0.00119       1.16592
     3    H    1  S      Ryd( 3S)     0.00013       1.17641
     4    H    1  px     Ryd( 2p)     0.00186       2.14576
     5    H    1  px     Ryd( 3p)     0.00000       3.35845
     6    H    1  py     Ryd( 2p)     0.00009       3.06683
     7    H    1  py     Ryd( 3p)     0.00116       3.54490
     8    H    1  pz     Ryd( 2p)     0.00125       2.36964
     9    H    1  pz     Ryd( 3p)     0.00038       3.50877
    10    H    1  dxy    Ryd( 3d)     0.00000       4.02829
    11    H    1  dxz    Ryd( 3d)     0.00002       3.63876
    12    H    1  dyz    Ryd( 3d)     0.00004       4.26990
    13    H    1  dx2y2  Ryd( 3d)     0.00012       4.14631
    14    H    1  dz2    Ryd( 3d)     0.00005       3.87340

    15    H    2  S      Val( 1S)     0.52724       0.16344
    16    H    2  S      Ryd( 2S)     0.00113       0.90922
    17    H    2  S      Ryd( 3S)     0.00014       1.62845
    18    H    2  px     Ryd( 2p)     0.00172       1.74384
    19    H    2  px     Ryd( 3p)     0.00000       3.43081
    20    H    2  py     Ryd( 2p)     0.00024       2.49516
    21    H    2  py     Ryd( 3p)     0.00057       3.67417
    22    H    2  pz     Ryd( 2p)     0.00117       2.14984
    23    H    2  pz     Ryd( 3p)     0.00047       3.62280
    24    H    2  dxy    Ryd( 3d)     0.00000       3.85262
    25    H    2  dxz    Ryd( 3d)     0.00001       3.67854
    26    H    2  dyz    Ryd( 3d)     0.00002       4.17396
    27    H    2  dx2y2  Ryd( 3d)     0.00007       3.91630
    28    H    2  dz2    Ryd( 3d)     0.00005       3.91992

    29    O    3  S      Cor( 1S)     1.99980     -19.47487
    30    O    3  S      Val( 2S)     1.68289      -1.02432
    31    O    3  S      Ryd( 3S)     0.00047       2.49728
    32    O    3  S      Ryd( 4S)     0.00001      19.41938
    33    O    3  S      Ryd( 5S)     0.00001      26.58450
    34    O    3  px     Val( 2p)     1.99216      -0.39243
    35    O    3  px     Ryd( 3p)     0.00156       0.64208
    36    O    3  px     Ryd( 4p)     0.00000       2.62711
    37    O    3  py     Val( 2p)     1.45386      -0.29007
    38    O    3  py     Ryd( 3p)     0.00417       0.75921
    39    O    3  py     Ryd( 4p)     0.00001       3.53930
    40    O    3  pz     Val( 2p)     1.77155      -0.35807
    41    O    3  pz     Ryd( 3p)     0.00061       0.67718
    42    O    3  pz     Ryd( 4p)     0.00012       2.98299
    43    O    3  dxy    Ryd( 3d)     0.00007       2.51624
    44    O    3  dxy    Ryd( 4d)     0.00000       6.53700
    45    O    3  dxz    Ryd( 3d)     0.00224       2.18232
    46    O    3  dxz    Ryd( 4d)     0.00003       6.45053
    47    O    3  dyz    Ryd( 3d)     0.00153       3.66925
    48    O    3  dyz    Ryd( 4d)     0.00017       7.00903
    49    O    3  dx2y2  Ryd( 3d)     0.00099       3.21500
    50    O    3  dx2y2  Ryd( 4d)     0.00001       6.75731
    51    O    3  dz2    Ryd( 3d)     0.00230       2.54106
    52    O    3  dz2    Ryd( 4d)     0.00005       6.58654
    53    O    3  f(0)   Ryd( 4f)     0.00001       5.96337
    54    O    3  f(C1)  Ryd( 4f)     0.00001       5.55684
    55    O    3  f(S1)  Ryd( 4f)     0.00004       6.44031
    56    O    3  f(C2)  Ryd( 4f)     0.00011       6.39704
    57    O    3  f(S2)  Ryd( 4f)     0.00000       6.04997
    58    O    3  f(C3)  Ryd( 4f)     0.00029       6.04901
    59    O    3  f(S3)  Ryd( 4f)     0.00005       6.12043

 WARNING:  Population inversion found on atom  H    1
           Population inversion found on atom  H    2


 Summary of Natural Population Analysis:                  
                                                          
                                       Natural Population 
                Natural  -----------------------------------------------
    Atom  No    Charge         Core      Valence    Rydberg      Total
 -----------------------------------------------------------------------
      H    1    0.44798      0.00000     0.54572    0.00630     0.55202
      H    2    0.46715      0.00000     0.52724    0.00561     0.53285
      O    3   -0.91513      1.99980     6.90047    0.01486     8.91513
 =======================================================================
   * Total *    0.00000      1.99980     7.97344    0.02676    10.00000

                                 Natural Population      
 --------------------------------------------------------
   Core                       1.99980 ( 99.9898% of   2)
   Valence                    7.97344 ( 99.6680% of   8)
   Natural Minimal Basis      9.97324 ( 99.7324% of  10)
   Natural Rydberg Basis      0.02676 (  0.2676% of  10)
 --------------------------------------------------------

    Atom  No          Natural Electron Configuration
 ----------------------------------------------------------------------------
      H    1            1S( 0.55)
      H    2            1S( 0.53)
      O    3      [core]2S( 1.68)2p( 5.22)3p( 0.01)3d( 0.01)


 NBO analysis skipped by request.
   1 Symmetry operations used in ECPInt.
 ECPInt:  NShTT=     276 NPrTT=     694 LenC2=     277 LenP2D=     681.
 LDataN:  DoStor=T MaxTD1= 7 Len=  274
 Calling FoFJK, ICntrl=  10002127 FMM=F ISym2X=0 I1Cent= 0 IOpClX= 0 NMat=1 NMatS=1 NMatT=0.
 -------------------------------------------------------------------
 Center     Atomic                   Forces (Hartrees/Bohr)
 Number     Number              X              Y              Z
 -------------------------------------------------------------------
      1        1           0.000000000    0.133958898   -0.083289181
      2        1           0.000000000    0.013385362   -0.004634389
      3        8           0.000000000   -0.147344260    0.087923570
 -------------------------------------------------------------------
 Cartesian Forces:  Max     0.147344260 RMS     0.077834300

 GradGradGradGradGradGradGradGradGradGradGradGradGradGradGradGradGradGrad
 Berny optimization.
 Search for a local minimum.
 Step number   1 out of a maximum of    2
 All quantities printed in internal units (Hartrees-Bohrs-Radians)
 Second derivative matrix not updated -- first step.
 The second derivative matrix:
                          X1        Y1        Z1        X2        Y2
           X1           1.00000
           Y1           0.00000   0.70560
           Z1           0.00000  -0.32824   0.22915
           X2           0.00000   0.00000   0.00000   1.00000
           Y2           0.00000  -0.01525  -0.02991   0.00000   0.36664
           Z2           0.00000   0.01971   0.03867   0.00000   0.24592
           X3           0.00000   0.00000   0.00000   0.00000   0.00000
           Y3           0.00000  -0.69036   0.35815   0.00000  -0.35140
           Z3           0.00000   0.30853  -0.26782   0.00000  -0.21601
                          Z2        X3        Y3        Z3
           Z2           0.23893
           X3           0.00000   1.00000
           Y3          -0.26563   0.00000   1.04175
           Z3          -0.27760   0.00000  -0.09252   0.54542
 ITU=  0
     Eigenvalues ---    0.17925   0.89001   1.50634
 Angle between quadratic step and forces=  35.93 degrees.
 Linear search not attempted -- first point.
 TrRot=  0.000000 -0.026111  0.033548  0.000000  0.000000  0.000000
 Variable       Old X    -DE/DX   Delta X   Delta X   Delta X     New X
                                 (Linear)    (Quad)   (Total)
    X1        0.00000   0.00000   0.00000   0.00000   0.00000   0.00000
    Y1        1.43349   0.13396   0.00000   0.07248   0.04637   1.47986
    Z1       -0.50910  -0.08329   0.00000  -0.11515  -0.08160  -0.59070
    X2        0.00000   0.00000   0.00000   0.00000   0.00000   0.00000
    Y2       -1.43349   0.01339   0.00000   0.04869   0.02258  -1.41091
    Z2       -0.88704  -0.00463   0.00000  -0.04053  -0.00699  -0.89403
    X3        0.00000   0.00000   0.00000   0.00000   0.00000   0.00000
    Y3        0.00000  -0.14734   0.00000  -0.04284  -0.06895  -0.06895
    Z3        0.22176   0.08792   0.00000   0.05504   0.08859   0.31035
         Item               Value     Threshold  Converged?
 Maximum Force            0.147344     0.000450     NO 
 RMS     Force            0.077834     0.000300     NO 
 Maximum Displacement     0.088591     0.001800     NO 
 RMS     Displacement     0.049409     0.001200     NO 
 Predicted change in Energy=-1.564615D-02
 GradGradGradGradGradGradGradGradGradGradGradGradGradGradGradGradGradGrad

 1\1\GINC-CCWSGE0132\Force\RB2PLYP-FC\def2TZVPP\H2O1\ALLOUCHE\16-May-20
 19\0\\# B2PLYP/def2tzvpp nosym scf(tight) force Pop=NPA\\xPert\\0,1\H,
 0.,0.758568,-0.269403\H,0.,-0.758568,-0.469403\O,0.,0.,0.117351\\Versi
 on=EM64L-G09RevD.01\HF=-76.3156028\MP2=-76.3972359\RMSD=7.021e-09\RMSF
 =7.783e-02\Dipole=0.,0.0213709,-0.6935082\PG=CS [SG(H2O1)]\\@


 IT'S WHAT A FELLER THINKS HE KNOWS THAT HURTS HIM...
                    ------
           KIN HUBBARD
 Job cpu time:       0 days  0 hours  0 minutes 16.1 seconds.
 File lengths (MBytes):  RWF=      5 Int=      0 D2E=      0 Chk=      1 Scr=      1
 Normal termination of Gaussian 09 at Thu May 16 09:05:17 2019.
