begin
comment by xLogML : From a0.log file, All value are in AU
atom 0.000000000000 1.433486338220 -0.887043465608 H 0.456920000000 0.000000000000 0.000000000000 0.000001741000 0.000006944000
atom 0.000000000000 -1.433486338220 -0.887043465608 H 0.456920000000 0.000000000000 0.000000000000 -0.000001741000 0.000006944000
atom 0.000000000000 0.000000000000 0.221761338834 O -0.913840000000 0.000000000000 0.000000000000 0.000000000000 -0.000013888000
energy  -76.41329261811300
charge  0.00000000000000
dipole 0.00000000000000 0.00000000000000 -0.78536559151880
end
begin
comment by xLogML : From amx1.log file, All value are in AU
atom -0.377945375555 1.433486338220 -0.887043465608 H 0.458220000000 0.000000000000 0.003986097000 -0.015277932000 0.011583708000
atom 0.000000000000 -1.433486338220 -0.887043465608 H 0.457000000000 0.000000000000 -0.000038856000 -0.000216892000 -0.000400024000
atom 0.000000000000 0.000000000000 0.221761338834 O -0.915210000000 0.000000000000 -0.003947241000 0.015494823000 -0.011183684000
energy  -76.41290302455000
charge  0.00000000000000
dipole -0.13211389922453 -0.00479984982293 -0.77879530528577
end
begin
comment by xLogML : From amx2.log file, All value are in AU
atom 0.000000000000 1.433486338220 -0.887043465608 H 0.457000000000 0.000000000000 -0.000038856000 0.000216892000 -0.000400024000
atom -0.377945375555 -1.433486338220 -0.887043465608 H 0.458220000000 0.000000000000 0.003986097000 0.015277932000 0.011583708000
atom 0.000000000000 0.000000000000 0.221761338834 O -0.915210000000 0.000000000000 -0.003947241000 -0.015494823000 -0.011183684000
energy  -76.41290302455000
charge  0.00000000000000
dipole -0.13211389922453 0.00479984982293 -0.77879530528577
end
begin
comment by xLogML : From amx3.log file, All value are in AU
atom 0.000000000000 1.433486338220 -0.887043465608 H 0.455970000000 0.000000000000 -0.004488238000 -0.011659682000 0.013172910000
atom 0.000000000000 -1.433486338220 -0.887043465608 H 0.455970000000 0.000000000000 -0.004488238000 0.011659682000 0.013172910000
atom -0.377945375555 0.000000000000 0.221761338834 O -0.911940000000 0.000000000000 0.008976477000 0.000000000000 -0.026345820000
energy  -76.41241150875700
charge  0.00000000000000
dipole 0.26088364078555 0.00000000000000 -0.76541867463171
end
begin
comment by xLogML : From amy1.log file, All value are in AU
atom 0.000000000000 1.055540962665 -0.887043465608 H 0.422450000000 0.000000000000 0.000000000000 0.202588784000 -0.177967849000
atom 0.000000000000 -1.433486338220 -0.887043465608 H 0.444370000000 0.000000000000 0.000000000000 -0.016390778000 0.012981324000
atom 0.000000000000 0.000000000000 0.221761338834 O -0.866820000000 0.000000000000 0.000000000000 -0.186198006000 0.164986525000
energy  -76.37885797662599
charge  0.00000000000000
dipole 0.00000000000000 -0.09749203164931 -0.80790914847403
end
begin
comment by xLogML : From amy2.log file, All value are in AU
atom 0.000000000000 1.433486338220 -0.887043465608 H 0.464390000000 0.000000000000 0.000000000000 -0.008462453000 -0.010655251000
atom 0.000000000000 -1.811431713774 -0.887043465608 H 0.469620000000 0.000000000000 0.000000000000 0.092689665000 0.043121192000
atom 0.000000000000 0.000000000000 0.221761338834 O -0.934020000000 0.000000000000 0.000000000000 -0.084227212000 -0.032465942000
energy  -76.39294492961299
charge  0.00000000000000
dipole 0.00000000000000 -0.09528882189453 -0.76109094118481
end
begin
comment by xLogML : From amy3.log file, All value are in AU
atom 0.000000000000 1.433486338220 -0.887043465608 H 0.448470000000 0.000000000000 0.000000000000 -0.083816851000 0.053402863000
atom 0.000000000000 -1.433486338220 -0.887043465608 H 0.420770000000 0.000000000000 0.000000000000 -0.185624393000 -0.191388477000
atom 0.000000000000 -0.377945375555 0.221761338834 O -0.869240000000 0.000000000000 0.000000000000 0.269441244000 0.137985614000
energy  -76.36317699282900
charge  0.00000000000000
dipole 0.00000000000000 0.19022355650703 -0.78709668489756
end
begin
comment by xLogML : From amz1.log file, All value are in AU
atom 0.000000000000 1.433486338220 -1.264988841163 H 0.450680000000 0.000000000000 0.000000000000 -0.052683651000 0.065638553000
atom 0.000000000000 -1.433486338220 -0.887043465608 H 0.451850000000 0.000000000000 0.000000000000 -0.009691068000 0.003501103000
atom 0.000000000000 0.000000000000 0.221761338834 O -0.902530000000 0.000000000000 0.000000000000 0.062374719000 -0.069139656000
energy  -76.39975107757300
charge  0.00000000000000
dipole 0.00000000000000 -0.03607755973463 -0.84969144775230
end
begin
comment by xLogML : From amz2.log file, All value are in AU
atom 0.000000000000 1.433486338220 -0.887043465608 H 0.451850000000 0.000000000000 0.000000000000 0.009691068000 0.003501103000
atom 0.000000000000 -1.433486338220 -1.264988841163 H 0.450680000000 0.000000000000 0.000000000000 0.052683651000 0.065638553000
atom 0.000000000000 0.000000000000 0.221761338834 O -0.902530000000 0.000000000000 0.000000000000 -0.062374719000 -0.069139656000
energy  -76.39975107757300
charge  0.00000000000000
dipole 0.00000000000000 0.03607755973463 -0.84969144775230
end
begin
comment by xLogML : From amz3.log file, All value are in AU
atom 0.000000000000 1.433486338220 -0.887043465608 H 0.460650000000 0.000000000000 0.000000000000 0.122707373000 -0.087771679000
atom 0.000000000000 -1.433486338220 -0.887043465608 H 0.460650000000 0.000000000000 0.000000000000 -0.122707373000 -0.087771679000
atom 0.000000000000 0.000000000000 -0.156184036721 O -0.921300000000 0.000000000000 0.000000000000 0.000000000000 0.175543358000
energy  -76.37936746936100
charge  0.00000000000000
dipole 0.00000000000000 0.00000000000000 -0.61355457367677
end
begin
comment by xLogML : From apx1.log file, All value are in AU
atom 0.377945375555 1.433486338220 -0.887043465608 H 0.458220000000 0.000000000000 -0.003986097000 -0.015277932000 0.011583708000
atom 0.000000000000 -1.433486338220 -0.887043465608 H 0.457000000000 0.000000000000 0.000038856000 -0.000216892000 -0.000400024000
atom 0.000000000000 0.000000000000 0.221761338834 O -0.915210000000 0.000000000000 0.003947241000 0.015494823000 -0.011183684000
energy  -76.41290302455000
charge  0.00000000000000
dipole 0.13211389922453 -0.00479984982293 -0.77879530528577
end
begin
comment by xLogML : From apx2.log file, All value are in AU
atom 0.000000000000 1.433486338220 -0.887043465608 H 0.457000000000 0.000000000000 0.000038856000 0.000216892000 -0.000400024000
atom 0.377945375555 -1.433486338220 -0.887043465608 H 0.458220000000 0.000000000000 -0.003986097000 0.015277932000 0.011583708000
atom 0.000000000000 0.000000000000 0.221761338834 O -0.915210000000 0.000000000000 0.003947241000 -0.015494823000 -0.011183684000
energy  -76.41290302455000
charge  0.00000000000000
dipole 0.13211389922453 0.00479984982293 -0.77879530528577
end
begin
comment by xLogML : From apx3.log file, All value are in AU
atom 0.000000000000 1.433486338220 -0.887043465608 H 0.455970000000 0.000000000000 0.004488238000 -0.011659682000 0.013172910000
atom 0.000000000000 -1.433486338220 -0.887043465608 H 0.455970000000 0.000000000000 0.004488238000 0.011659682000 0.013172910000
atom 0.377945375555 0.000000000000 0.221761338834 O -0.911940000000 0.000000000000 -0.008976477000 0.000000000000 -0.026345820000
energy  -76.41241150875700
charge  0.00000000000000
dipole -0.26088364078555 0.00000000000000 -0.76541867463171
end
begin
comment by xLogML : From apy1.log file, All value are in AU
atom 0.000000000000 1.811431713774 -0.887043465608 H 0.469620000000 0.000000000000 0.000000000000 -0.092689665000 0.043121192000
atom 0.000000000000 -1.433486338220 -0.887043465608 H 0.464390000000 0.000000000000 0.000000000000 0.008462453000 -0.010655251000
atom 0.000000000000 0.000000000000 0.221761338834 O -0.934020000000 0.000000000000 0.000000000000 0.084227212000 -0.032465942000
energy  -76.39294492961299
charge  0.00000000000000
dipole 0.00000000000000 0.09528882189453 -0.76109094118481
end
begin
comment by xLogML : From apy2.log file, All value are in AU
atom 0.000000000000 1.433486338220 -0.887043465608 H 0.444370000000 0.000000000000 0.000000000000 0.016390778000 0.012981324000
atom 0.000000000000 -1.055540962665 -0.887043465608 H 0.422450000000 0.000000000000 0.000000000000 -0.202588784000 -0.177967849000
atom 0.000000000000 0.000000000000 0.221761338834 O -0.866820000000 0.000000000000 0.000000000000 0.186198006000 0.164986525000
energy  -76.37885797662599
charge  0.00000000000000
dipole 0.00000000000000 0.09749203164931 -0.80790914847403
end
begin
comment by xLogML : From apy3.log file, All value are in AU
atom 0.000000000000 1.433486338220 -0.887043465608 H 0.420770000000 0.000000000000 0.000000000000 0.185624393000 -0.191388477000
atom 0.000000000000 -1.433486338220 -0.887043465608 H 0.448470000000 0.000000000000 0.000000000000 0.083816851000 0.053402863000
atom 0.000000000000 0.377945375555 0.221761338834 O -0.869240000000 0.000000000000 0.000000000000 -0.269441244000 0.137985614000
energy  -76.36317699282900
charge  0.00000000000000
dipole 0.00000000000000 -0.19022355650703 -0.78709668489756
end
begin
comment by xLogML : From apz1.log file, All value are in AU
atom 0.000000000000 1.433486338220 -0.509098090053 H 0.447980000000 0.000000000000 0.000000000000 0.133958898000 -0.083289181000
atom 0.000000000000 -1.433486338220 -0.887043465608 H 0.467150000000 0.000000000000 0.000000000000 0.013385362000 -0.004634389000
atom 0.000000000000 0.000000000000 0.221761338834 O -0.915130000000 0.000000000000 0.000000000000 -0.147344260000 0.087923570000
energy  -76.39723588808600
charge  0.00000000000000
dipole 0.00000000000000 0.02022231810644 -0.70612872640915
end
begin
comment by xLogML : From apz2.log file, All value are in AU
atom 0.000000000000 1.433486338220 -0.887043465608 H 0.467150000000 0.000000000000 0.000000000000 -0.013385362000 -0.004634389000
atom 0.000000000000 -1.433486338220 -0.509098090053 H 0.447980000000 0.000000000000 0.000000000000 -0.133958898000 -0.083289181000
atom 0.000000000000 0.000000000000 0.221761338834 O -0.915130000000 0.000000000000 0.000000000000 0.147344260000 0.087923570000
energy  -76.39723588808600
charge  0.00000000000000
dipole 0.00000000000000 -0.02022231810644 -0.70612872640915
end
begin
comment by xLogML : From apz3.log file, All value are in AU
atom 0.000000000000 1.433486338220 -0.887043465608 H 0.448850000000 0.000000000000 0.000000000000 -0.043121193000 0.067596796000
atom 0.000000000000 -1.433486338220 -0.887043465608 H 0.448850000000 0.000000000000 0.000000000000 0.043121193000 0.067596796000
atom 0.000000000000 0.000000000000 0.599706714389 O -0.897700000000 0.000000000000 0.000000000000 0.000000000000 -0.135193591000
energy  -76.38516333592101
charge  0.00000000000000
dipole 0.00000000000000 0.00000000000000 -0.91035840207161
end
