begin
comment by runHNNP
atom 1.133835680353 -0.840056965847 -0.369955464690 H 0.000000000000 0.000000000000 0.000000000000 0.000000000000 0.000000000000
atom 0.188972613392 1.845412056081 -1.356245107958 H 0.000000000000 0.000000000000 0.000000000000 0.000000000000 0.000000000000
atom 1.133835680353 0.884372933414 0.176181057192 O 0.000000000000 0.000000000000 0.000000000000 0.000000000000 0.000000000000
energy  0
charge  0
end
