 Entering Gaussian System, Link 0=/pbs/throng/ilm/sl6/allouche/Gaussian09D/g09/g09
 Initial command:
 /pbs/throng/ilm/sl6/allouche/Gaussian09D/g09/l1.exe "/scratch/6331980.1.long/Gau-238286.inp" -scrdir="/scratch/6331980.1.long/"
 Entering Link 1 = /pbs/throng/ilm/sl6/allouche/Gaussian09D/g09/l1.exe PID=    238287.
  
 Copyright (c) 1988,1990,1992,1993,1995,1998,2003,2009,2013,
            Gaussian, Inc.  All Rights Reserved.
  
 This is part of the Gaussian(R) 09 program.  It is based on
 the Gaussian(R) 03 system (copyright 2003, Gaussian, Inc.),
 the Gaussian(R) 98 system (copyright 1998, Gaussian, Inc.),
 the Gaussian(R) 94 system (copyright 1995, Gaussian, Inc.),
 the Gaussian 92(TM) system (copyright 1992, Gaussian, Inc.),
 the Gaussian 90(TM) system (copyright 1990, Gaussian, Inc.),
 the Gaussian 88(TM) system (copyright 1988, Gaussian, Inc.),
 the Gaussian 86(TM) system (copyright 1986, Carnegie Mellon
 University), and the Gaussian 82(TM) system (copyright 1983,
 Carnegie Mellon University). Gaussian is a federally registered
 trademark of Gaussian, Inc.
  
 This software contains proprietary and confidential information,
 including trade secrets, belonging to Gaussian, Inc.
  
 This software is provided under written license and may be
 used, copied, transmitted, or stored only in accord with that
 written license.
  
 The following legend is applicable only to US Government
 contracts under FAR:
  
                    RESTRICTED RIGHTS LEGEND
  
 Use, reproduction and disclosure by the US Government is
 subject to restrictions as set forth in subparagraphs (a)
 and (c) of the Commercial Computer Software - Restricted
 Rights clause in FAR 52.227-19.
  
 Gaussian, Inc.
 340 Quinnipiac St., Bldg. 40, Wallingford CT 06492
  
  
 ---------------------------------------------------------------
 Warning -- This program may not be used in any manner that
 competes with the business of Gaussian, Inc. or will provide
 assistance to any competitor of Gaussian, Inc.  The licensee
 of this program is prohibited from giving any competitor of
 Gaussian, Inc. access to this program.  By using this program,
 the user acknowledges that Gaussian, Inc. is engaged in the
 business of creating and licensing software in the field of
 computational chemistry and represents and warrants to the
 licensee that it is not a competitor of Gaussian, Inc. and that
 it will not use this program in any manner prohibited above.
 ---------------------------------------------------------------
  

 Cite this work as:
 Gaussian 09, Revision D.01,
 M. J. Frisch, G. W. Trucks, H. B. Schlegel, G. E. Scuseria, 
 M. A. Robb, J. R. Cheeseman, G. Scalmani, V. Barone, B. Mennucci, 
 G. A. Petersson, H. Nakatsuji, M. Caricato, X. Li, H. P. Hratchian, 
 A. F. Izmaylov, J. Bloino, G. Zheng, J. L. Sonnenberg, M. Hada, 
 M. Ehara, K. Toyota, R. Fukuda, J. Hasegawa, M. Ishida, T. Nakajima, 
 Y. Honda, O. Kitao, H. Nakai, T. Vreven, J. A. Montgomery, Jr., 
 J. E. Peralta, F. Ogliaro, M. Bearpark, J. J. Heyd, E. Brothers, 
 K. N. Kudin, V. N. Staroverov, T. Keith, R. Kobayashi, J. Normand, 
 K. Raghavachari, A. Rendell, J. C. Burant, S. S. Iyengar, J. Tomasi, 
 M. Cossi, N. Rega, J. M. Millam, M. Klene, J. E. Knox, J. B. Cross, 
 V. Bakken, C. Adamo, J. Jaramillo, R. Gomperts, R. E. Stratmann, 
 O. Yazyev, A. J. Austin, R. Cammi, C. Pomelli, J. W. Ochterski, 
 R. L. Martin, K. Morokuma, V. G. Zakrzewski, G. A. Voth, 
 P. Salvador, J. J. Dannenberg, S. Dapprich, A. D. Daniels, 
 O. Farkas, J. B. Foresman, J. V. Ortiz, J. Cioslowski, 
 and D. J. Fox, Gaussian, Inc., Wallingford CT, 2013.
 
 ******************************************
 Gaussian 09:  EM64L-G09RevD.01 24-Apr-2013
                16-May-2019 
 ******************************************
 -------------------------------------------------
 # B2PLYP/def2tzvpp nosym scf(tight) force Pop=NPA
 -------------------------------------------------
 1/10=7,30=1,38=1/1,3;
 2/12=2,15=1,17=6,18=5,40=1/2;
 3/5=44,7=202,11=9,16=1,25=1,30=1,71=1,74=-47/1,2,3;
 4//1;
 5/5=2,32=2,38=5/2;
 8/6=4,10=1/1;
 9/15=2,16=-3/6;
 10/5=1,31=1/2;
 6/7=2,8=2,9=2,10=2,18=1,40=-1/1,7;
 7/12=2,29=1,30=1/1,2,3,16;
 1/10=7,30=1/3;
 99//99;
 -----
 xPert
 -----
 Symbolic Z-matrix:
 Charge =  0 Multiplicity = 1
 H                     0.        0.75857  -0.4694 
 H                    -0.01     -0.75857  -0.4694 
 O                     0.        0.        0.11735 
 

 GradGradGradGradGradGradGradGradGradGradGradGradGradGradGradGradGradGrad
 Berny optimization.
 Initialization pass.
 Trust Radius=3.00D-01 FncErr=1.00D-07 GrdErr=1.00D-07
 Number of steps in this run=      2 maximum allowed number of steps=      2.
 GradGradGradGradGradGradGradGradGradGradGradGradGradGradGradGradGradGrad

                          Input orientation:                          
 ---------------------------------------------------------------------
 Center     Atomic      Atomic             Coordinates (Angstroms)
 Number     Number       Type             X           Y           Z
 ---------------------------------------------------------------------
      1          1           0        0.000000    0.758568   -0.469403
      2          1           0       -0.010000   -0.758568   -0.469403
      3          8           0        0.000000    0.000000    0.117351
 ---------------------------------------------------------------------
                    Distance matrix (angstroms):
                    1          2          3
     1  H    0.000000
     2  H    1.517169   0.000000
     3  O    0.959013   0.959065   0.000000
 Symmetry turned off by external request.
 Stoichiometry    H2O
 Framework group  CS[SG(H2O)]
 Deg. of freedom     3
 Full point group                 CS      NOp   2
 Rotational constants (GHZ):    819.9810398    435.7066128    284.5223178
 Standard basis: def2TZVPP (5D, 7F)
    59 basis functions,    85 primitive gaussians,    66 cartesian basis functions
     5 alpha electrons        5 beta electrons
       nuclear repulsion energy         9.1772509981 Hartrees.
 NAtoms=    3 NActive=    3 NUniq=    3 SFac= 1.00D+00 NAtFMM=   60 NAOKFM=F Big=F
 Integral buffers will be    131072 words long.
 Regular integral format.
 Two-electron integral symmetry is turned off.
 One-electron integrals computed using PRISM.
   1 Symmetry operations used in ECPInt.
 ECPInt:  NShTT=     276 NPrTT=     694 LenC2=     277 LenP2D=     681.
 LDataN:  DoStor=T MaxTD1= 6 Len=  172
 NBasis=    59 RedAO= T EigKep=  2.26D-03  NBF=    59
 NBsUse=    59 1.00D-06 EigRej= -1.00D+00 NBFU=    59
 ExpMin= 1.03D-01 ExpMax= 2.70D+04 ExpMxC= 9.22D+02 IAcc=1 IRadAn=         1 AccDes= 0.00D+00
 Harris functional with IExCor=  419 and IRadAn=       1 diagonalized for initial guess.
 HarFok:  IExCor=  419 AccDes= 0.00D+00 IRadAn=         1 IDoV= 1 UseB2=F ITyADJ=14
 ICtDFT=  3500011 ScaDFX=  1.000000  1.000000  1.000000  1.000000
 FoFCou: FMM=F IPFlag=           0 FMFlag=      100000 FMFlg1=           0
         NFxFlg=           0 DoJE=T BraDBF=F KetDBF=T FulRan=T
         wScrn=  0.000000 ICntrl=     500 IOpCl=  0 I1Cent=   200000004 NGrid=           0
         NMat0=    1 NMatS0=      1 NMatT0=    0 NMatD0=    1 NMtDS0=    0 NMtDT0=    0
 Symmetry not used in FoFCou.
 Keep R1 ints in memory in canonical form, NReq=3557649.
 Requested convergence on RMS density matrix=1.00D-08 within 128 cycles.
 Requested convergence on MAX density matrix=1.00D-06.
 Requested convergence on             energy=1.00D-06.
 No special actions if energy rises.
 Integral accuracy reduced to 1.0D-05 until final iterations.
 Initial convergence to 1.0D-05 achieved.  Increase integral accuracy.
 SCF Done:  E(RB2PLYP) =  -76.3297592701     A.U. after   10 cycles
            NFock= 10  Conv=0.35D-08     -V/T= 2.0025
 DoSCS=T DFT=T ScalE2(SS,OS)=  0.270000  0.270000
 ExpMin= 1.03D-01 ExpMax= 2.70D+04 ExpMxC= 9.22D+02 IAcc=3 IRadAn=         5 AccDes= 0.00D+00
 HarFok:  IExCor=  205 AccDes= 0.00D+00 IRadAn=         5 IDoV=-2 UseB2=F ITyADJ=14
 ICtDFT= 12500011 ScaDFX=  1.000000  1.000000  1.000000  1.000000
 Range of M.O.s used for correlation:     2    59
 NBasis=    59 NAE=     5 NBE=     5 NFC=     1 NFV=     0
 NROrb=     58 NOA=     4 NOB=     4 NVA=    54 NVB=    54
 DoSCS=T DFT=T ScalE2(SS,OS)=  0.270000  0.270000
 Fully direct method using O(ONN) memory.
 JobTyp=1 Pass  1:  I=   2 to   5 NPSUse=  1 ParTrn=F ParDer=F DoDerP=T.
 Spin components of T(2) and E(2):
     alpha-alpha T2 =       0.1162668897D-01 E2=     -0.1022061022D-01
     alpha-beta  T2 =       0.6750596088D-01 E2=     -0.6309212638D-01
     beta-beta   T2 =       0.1162668897D-01 E2=     -0.1022061022D-01
 E2(B2PLYP) =    -0.8353334682D-01 E(B2PLYP) =    -0.76413292616932D+02
          IDoAtm=111
          Differentiating once with respect to electric field.
                with respect to dipole field.
          Differentiating once with respect to nuclear coordinates.
 Keep R1 ints in memory in canonical form, NReq=3533351.
          There are     1 degrees of freedom in the 1st order CPHF.  IDoFFX=0 NUNeed=     1.
 LinEq1:  Iter=  0 NonCon=     1 RMS=1.89D-03 Max=1.54D-02 NDo=     1
 AX will form     1 AO Fock derivatives at one time.
 LinEq1:  Iter=  1 NonCon=     1 RMS=2.02D-04 Max=1.61D-03 NDo=     1
 LinEq1:  Iter=  2 NonCon=     1 RMS=5.49D-05 Max=4.55D-04 NDo=     1
 LinEq1:  Iter=  3 NonCon=     1 RMS=2.45D-05 Max=1.32D-04 NDo=     1
 LinEq1:  Iter=  4 NonCon=     1 RMS=5.85D-06 Max=3.52D-05 NDo=     1
 LinEq1:  Iter=  5 NonCon=     1 RMS=3.79D-07 Max=3.24D-06 NDo=     1
 LinEq1:  Iter=  6 NonCon=     1 RMS=5.41D-08 Max=4.93D-07 NDo=     1
 LinEq1:  Iter=  7 NonCon=     1 RMS=4.16D-09 Max=3.27D-08 NDo=     1
 LinEq1:  Iter=  8 NonCon=     1 RMS=1.84D-10 Max=1.51D-09 NDo=     1
 LinEq1:  Iter=  9 NonCon=     0 RMS=1.58D-11 Max=1.07D-10 NDo=     1
 Linear equations converged to 1.000D-10 1.000D-09 after     9 iterations.
 End of Minotr F.D. properties file   721 does not exist.
 End of Minotr F.D. properties file   722 does not exist.
 End of Minotr F.D. properties file   788 does not exist.

 **********************************************************************

            Population analysis using the SCF density.

 **********************************************************************

 Alpha  occ. eigenvalues --  -19.72551  -1.15304  -0.60903  -0.47085  -0.39615
 Alpha virt. eigenvalues --    0.06024   0.13542   0.42539   0.46145   0.48807
 Alpha virt. eigenvalues --    0.49412   0.60720   0.62585   0.71745   0.74953
 Alpha virt. eigenvalues --    0.84263   1.07864   1.24544   1.30707   1.80241
 Alpha virt. eigenvalues --    1.86149   1.89777   1.91603   1.98862   2.21783
 Alpha virt. eigenvalues --    2.51052   2.70744   2.86324   3.17902   3.28141
 Alpha virt. eigenvalues --    3.39168   3.41027   3.43359   3.49817   3.66746
 Alpha virt. eigenvalues --    3.70131   3.76767   3.77077   4.12099   4.22374
 Alpha virt. eigenvalues --    4.22541   4.28212   4.74162   4.77842   4.92489
 Alpha virt. eigenvalues --    5.10654   5.77804   6.31449   6.59872   6.62378
 Alpha virt. eigenvalues --    6.70886   6.73149   6.78544   6.95791   7.07115
 Alpha virt. eigenvalues --    7.57141   7.59280   7.81587  44.15132
          Condensed to atoms (all electrons):
               1          2          3
     1  H    0.478180  -0.028264   0.337723
     2  H   -0.028264   0.478167   0.337709
     3  O    0.337723   0.337709   7.749317
 Mulliken charges:
               1
     1  H    0.212362
     2  H    0.212388
     3  O   -0.424750
 Sum of Mulliken charges =   0.00000
 Mulliken charges with hydrogens summed into heavy atoms:
               1
     3  O    0.000000
 Electronic spatial extent (au):  <R**2>=             19.4680
 Charge=              0.0000 electrons
 Dipole moment (field-independent basis, Debye):
    X=             -0.0170    Y=              0.0000    Z=             -1.9962  Tot=              1.9963
 Quadrupole moment (field-independent basis, Debye-Ang):
   XX=             -7.4698   YY=             -4.3028   ZZ=             -6.2385
   XY=              0.0209   XZ=              0.0125   YZ=              0.0000
 Traceless Quadrupole moment (field-independent basis, Debye-Ang):
   XX=             -1.4661   YY=              1.7009   ZZ=             -0.2348
   XY=              0.0209   XZ=              0.0125   YZ=              0.0000
 Octapole moment (field-independent basis, Debye-Ang**2):
  XXX=              0.0147  YYY=              0.0001  ZZZ=             -1.1962  XYY=             -0.0071
  XXY=             -0.0001  XXZ=             -0.3024  XZZ=              0.0012  YZZ=              0.0000
  YYZ=             -1.3359  XYZ=             -0.0068
 Hexadecapole moment (field-independent basis, Debye-Ang**3):
 XXXX=             -6.2080 YYYY=             -6.0982 ZZZZ=             -7.0169 XXXY=             -0.0058
 XXXZ=             -0.0039 YYYX=              0.0066 YYYZ=             -0.0001 ZZZX=             -0.0009
 ZZZY=             -0.0001 XXYY=             -2.3645 XXZZ=             -2.2584 YYZZ=             -1.8477
 XXYZ=              0.0001 YYXZ=              0.0057 ZZXY=              0.0027
 N-N= 9.177250998073D+00 E-N=-1.992256234656D+02  KE= 7.613634207203D+01
 ******************************Gaussian NBO Version 3.1******************************
             N A T U R A L   A T O M I C   O R B I T A L   A N D
          N A T U R A L   B O N D   O R B I T A L   A N A L Y S I S
 ******************************Gaussian NBO Version 3.1******************************
       /RESON  / : Allow strongly delocalized NBO set

 Analyzing the SCF density

 Job title: xPert                                                           

 Storage needed:     10799 in NPA ( 536870849 available)


 NATURAL POPULATIONS:  Natural atomic orbital occupancies 
                                                          
   NAO  Atom  No  lang   Type(AO)    Occupancy      Energy
 ----------------------------------------------------------
     1    H    1  S      Val( 1S)     0.53653       0.16803
     2    H    1  S      Ryd( 2S)     0.00143       0.81311
     3    H    1  S      Ryd( 3S)     0.00010       1.72138
     4    H    1  px     Ryd( 2p)     0.00204       1.68086
     5    H    1  px     Ryd( 3p)     0.00000       3.48560
     6    H    1  py     Ryd( 2p)     0.00029       2.40553
     7    H    1  py     Ryd( 3p)     0.00063       3.76965
     8    H    1  pz     Ryd( 2p)     0.00132       2.08563
     9    H    1  pz     Ryd( 3p)     0.00056       3.66949
    10    H    1  dxy    Ryd( 3d)     0.00001       3.84727
    11    H    1  dxz    Ryd( 3d)     0.00001       3.67817
    12    H    1  dyz    Ryd( 3d)     0.00003       4.17709
    13    H    1  dx2y2  Ryd( 3d)     0.00010       3.94059
    14    H    1  dz2    Ryd( 3d)     0.00002       3.91082

    15    H    2  S      Val( 1S)     0.53653       0.16796
    16    H    2  S      Ryd( 2S)     0.00143       0.81305
    17    H    2  S      Ryd( 3S)     0.00010       1.72151
    18    H    2  px     Ryd( 2p)     0.00204       1.68083
    19    H    2  px     Ryd( 3p)     0.00000       3.48562
    20    H    2  py     Ryd( 2p)     0.00029       2.40537
    21    H    2  py     Ryd( 3p)     0.00063       3.76967
    22    H    2  pz     Ryd( 2p)     0.00132       2.08548
    23    H    2  pz     Ryd( 3p)     0.00056       3.66949
    24    H    2  dxy    Ryd( 3d)     0.00001       3.84727
    25    H    2  dxz    Ryd( 3d)     0.00001       3.67818
    26    H    2  dyz    Ryd( 3d)     0.00003       4.17694
    27    H    2  dx2y2  Ryd( 3d)     0.00010       3.94056
    28    H    2  dz2    Ryd( 3d)     0.00002       3.91076

    29    O    3  S      Cor( 1S)     1.99986     -19.50491
    30    O    3  S      Val( 2S)     1.74441      -1.06321
    31    O    3  S      Ryd( 3S)     0.00054       2.21900
    32    O    3  S      Ryd( 5S)     0.00000      42.71576
    33    O    3  S      Ryd( 4S)     0.00000       3.23644
    34    O    3  px     Val( 2p)     1.99188      -0.39014
    35    O    3  px     Ryd( 3p)     0.00125       0.60764
    36    O    3  px     Ryd( 4p)     0.00000       2.68347
    37    O    3  py     Val( 2p)     1.45248      -0.30043
    38    O    3  py     Ryd( 3p)     0.00287       0.69027
    39    O    3  py     Ryd( 4p)     0.00001       3.34218
    40    O    3  pz     Val( 2p)     1.71172      -0.34823
    41    O    3  pz     Ryd( 3p)     0.00032       0.65284
    42    O    3  pz     Ryd( 4p)     0.00016       3.05123
    43    O    3  dxy    Ryd( 3d)     0.00000       2.33022
    44    O    3  dxy    Ryd( 4d)     0.00000       6.51068
    45    O    3  dxz    Ryd( 3d)     0.00245       2.17991
    46    O    3  dxz    Ryd( 4d)     0.00003       6.48982
    47    O    3  dyz    Ryd( 3d)     0.00186       3.49790
    48    O    3  dyz    Ryd( 4d)     0.00018       7.06182
    49    O    3  dx2y2  Ryd( 3d)     0.00088       2.72312
    50    O    3  dx2y2  Ryd( 4d)     0.00001       6.68895
    51    O    3  dz2    Ryd( 3d)     0.00255       2.47296
    52    O    3  dz2    Ryd( 4d)     0.00003       6.59762
    53    O    3  f(0)   Ryd( 4f)     0.00002       5.92880
    54    O    3  f(C1)  Ryd( 4f)     0.00002       5.57375
    55    O    3  f(S1)  Ryd( 4f)     0.00002       6.40282
    56    O    3  f(C2)  Ryd( 4f)     0.00008       6.30598
    57    O    3  f(S2)  Ryd( 4f)     0.00000       6.04855
    58    O    3  f(C3)  Ryd( 4f)     0.00019       5.86296
    59    O    3  f(S3)  Ryd( 4f)     0.00004       5.88196

 WARNING:  Population inversion found on atom  H    1
           Population inversion found on atom  H    2


 Summary of Natural Population Analysis:                  
                                                          
                                       Natural Population 
                Natural  -----------------------------------------------
    Atom  No    Charge         Core      Valence    Rydberg      Total
 -----------------------------------------------------------------------
      H    1    0.45692      0.00000     0.53653    0.00655     0.54308
      H    2    0.45693      0.00000     0.53653    0.00655     0.54307
      O    3   -0.91385      1.99986     6.90050    0.01349     8.91385
 =======================================================================
   * Total *    0.00000      1.99986     7.97355    0.02659    10.00000

                                 Natural Population      
 --------------------------------------------------------
   Core                       1.99986 ( 99.9929% of   2)
   Valence                    7.97355 ( 99.6694% of   8)
   Natural Minimal Basis      9.97341 ( 99.7341% of  10)
   Natural Rydberg Basis      0.02659 (  0.2659% of  10)
 --------------------------------------------------------

    Atom  No          Natural Electron Configuration
 ----------------------------------------------------------------------------
      H    1            1S( 0.54)
      H    2            1S( 0.54)
      O    3      [core]2S( 1.74)2p( 5.16)3d( 0.01)


 NBO analysis skipped by request.
   1 Symmetry operations used in ECPInt.
 ECPInt:  NShTT=     276 NPrTT=     694 LenC2=     277 LenP2D=     681.
 LDataN:  DoStor=T MaxTD1= 7 Len=  274
 Calling FoFJK, ICntrl=  10002127 FMM=F ISym2X=0 I1Cent= 0 IOpClX= 0 NMat=1 NMatS=1 NMatT=0.
 -------------------------------------------------------------------
 Center     Atomic                   Forces (Hartrees/Bohr)
 Number     Number              X              Y              Z
 -------------------------------------------------------------------
      1        1           0.000000328    0.000002309    0.000005916
      2        1           0.000000402    0.000040641    0.000039032
      3        8          -0.000000730   -0.000042950   -0.000044948
 -------------------------------------------------------------------
 Cartesian Forces:  Max     0.000044948 RMS     0.000028050

 GradGradGradGradGradGradGradGradGradGradGradGradGradGradGradGradGradGrad
 Berny optimization.
 Search for a local minimum.
 Step number   1 out of a maximum of    2
 All quantities printed in internal units (Hartrees-Bohrs-Radians)
 Second derivative matrix not updated -- first step.
 The second derivative matrix:
                          X1        Y1        Z1        X2        Y2
           X1           1.00000
           Y1           0.00032   0.36664
           Z1           0.00042  -0.24592   0.23893
           X2           0.00000   0.00008   0.00010   1.00000
           Y2          -0.00032  -0.01823  -0.02357   0.00451   0.36654
           Z2           0.00042   0.02357   0.03048   0.00366   0.24584
           X3          -0.00001  -0.00040  -0.00052  -0.00006  -0.00419
           Y3           0.00000  -0.34841   0.26950  -0.00459  -0.34830
           Z3          -0.00083   0.22235  -0.26941  -0.00376  -0.22226
                          Z2        X3        Y3        Z3
           Z2           0.23886
           X3          -0.00407   1.00000
           Y3          -0.26941   0.00459   0.69671
           Z3          -0.26934   0.00459  -0.00009   0.53875
 ITU=  0
     Eigenvalues ---    0.14592   0.86709   1.00182
 Angle between quadratic step and forces=  33.29 degrees.
 Linear search not attempted -- first point.
 TrRot=  0.000000 -0.000012 -0.000020  0.000000  0.000000  0.000000
 Variable       Old X    -DE/DX   Delta X   Delta X   Delta X     New X
                                 (Linear)    (Quad)   (Total)
    X1        0.00000   0.00000   0.00000   0.00000   0.00000   0.00000
    Y1        1.43349   0.00000   0.00000   0.00002   0.00001   1.43350
    Z1       -0.88704   0.00001   0.00000   0.00003   0.00001  -0.88704
    X2       -0.01890   0.00000   0.00000   0.00000   0.00000  -0.01890
    Y2       -1.43349   0.00004   0.00000   0.00003   0.00002  -1.43347
    Z2       -0.88704   0.00004   0.00000   0.00007   0.00005  -0.88700
    X3        0.00000   0.00000   0.00000   0.00000   0.00000   0.00000
    Y3        0.00000  -0.00004   0.00000  -0.00002  -0.00003  -0.00003
    Z3        0.22176  -0.00004   0.00000  -0.00003  -0.00005   0.22171
         Item               Value     Threshold  Converged?
 Maximum Force            0.000045     0.000450     YES
 RMS     Force            0.000028     0.000300     YES
 Maximum Displacement     0.000054     0.001800     YES
 RMS     Displacement     0.000027     0.001200     YES
 Predicted change in Energy=-3.198570D-09
 Optimization completed.
    -- Stationary point found.
 GradGradGradGradGradGradGradGradGradGradGradGradGradGradGradGradGradGrad

 1\1\GINC-CCWSGE0267\Force\RB2PLYP-FC\def2TZVPP\H2O1\ALLOUCHE\16-May-20
 19\0\\# B2PLYP/def2tzvpp nosym scf(tight) force Pop=NPA\\xPert\\0,1\H,
 0.,0.758568,-0.469403\H,-0.01,-0.758568,-0.469403\O,0.,0.,0.117351\\Ve
 rsion=EM64L-G09RevD.01\HF=-76.3297593\MP2=-76.4132926\RMSD=3.462e-09\R
 MSF=2.805e-05\Dipole=-0.0065349,0.0000125,-0.7668751\PG=CS [SG(H2O1)]\
 \@


 My opinions may have changed, but not the fact that I am right.
                       -- Ashleigh Brilliant
 Job cpu time:       0 days  0 hours  0 minutes 16.2 seconds.
 File lengths (MBytes):  RWF=      5 Int=      0 D2E=      0 Chk=      1 Scr=      1
 Normal termination of Gaussian 09 at Thu May 16 09:03:45 2019.
