 Entering Gaussian System, Link 0=/pbs/throng/ilm/sl6/allouche/Gaussian09D/g09/g09
 Initial command:
 /pbs/throng/ilm/sl6/allouche/Gaussian09D/g09/l1.exe "/scratch/6331982.1.long/Gau-288131.inp" -scrdir="/scratch/6331982.1.long/"
 Entering Link 1 = /pbs/throng/ilm/sl6/allouche/Gaussian09D/g09/l1.exe PID=    288132.
  
 Copyright (c) 1988,1990,1992,1993,1995,1998,2003,2009,2013,
            Gaussian, Inc.  All Rights Reserved.
  
 This is part of the Gaussian(R) 09 program.  It is based on
 the Gaussian(R) 03 system (copyright 2003, Gaussian, Inc.),
 the Gaussian(R) 98 system (copyright 1998, Gaussian, Inc.),
 the Gaussian(R) 94 system (copyright 1995, Gaussian, Inc.),
 the Gaussian 92(TM) system (copyright 1992, Gaussian, Inc.),
 the Gaussian 90(TM) system (copyright 1990, Gaussian, Inc.),
 the Gaussian 88(TM) system (copyright 1988, Gaussian, Inc.),
 the Gaussian 86(TM) system (copyright 1986, Carnegie Mellon
 University), and the Gaussian 82(TM) system (copyright 1983,
 Carnegie Mellon University). Gaussian is a federally registered
 trademark of Gaussian, Inc.
  
 This software contains proprietary and confidential information,
 including trade secrets, belonging to Gaussian, Inc.
  
 This software is provided under written license and may be
 used, copied, transmitted, or stored only in accord with that
 written license.
  
 The following legend is applicable only to US Government
 contracts under FAR:
  
                    RESTRICTED RIGHTS LEGEND
  
 Use, reproduction and disclosure by the US Government is
 subject to restrictions as set forth in subparagraphs (a)
 and (c) of the Commercial Computer Software - Restricted
 Rights clause in FAR 52.227-19.
  
 Gaussian, Inc.
 340 Quinnipiac St., Bldg. 40, Wallingford CT 06492
  
  
 ---------------------------------------------------------------
 Warning -- This program may not be used in any manner that
 competes with the business of Gaussian, Inc. or will provide
 assistance to any competitor of Gaussian, Inc.  The licensee
 of this program is prohibited from giving any competitor of
 Gaussian, Inc. access to this program.  By using this program,
 the user acknowledges that Gaussian, Inc. is engaged in the
 business of creating and licensing software in the field of
 computational chemistry and represents and warrants to the
 licensee that it is not a competitor of Gaussian, Inc. and that
 it will not use this program in any manner prohibited above.
 ---------------------------------------------------------------
  

 Cite this work as:
 Gaussian 09, Revision D.01,
 M. J. Frisch, G. W. Trucks, H. B. Schlegel, G. E. Scuseria, 
 M. A. Robb, J. R. Cheeseman, G. Scalmani, V. Barone, B. Mennucci, 
 G. A. Petersson, H. Nakatsuji, M. Caricato, X. Li, H. P. Hratchian, 
 A. F. Izmaylov, J. Bloino, G. Zheng, J. L. Sonnenberg, M. Hada, 
 M. Ehara, K. Toyota, R. Fukuda, J. Hasegawa, M. Ishida, T. Nakajima, 
 Y. Honda, O. Kitao, H. Nakai, T. Vreven, J. A. Montgomery, Jr., 
 J. E. Peralta, F. Ogliaro, M. Bearpark, J. J. Heyd, E. Brothers, 
 K. N. Kudin, V. N. Staroverov, T. Keith, R. Kobayashi, J. Normand, 
 K. Raghavachari, A. Rendell, J. C. Burant, S. S. Iyengar, J. Tomasi, 
 M. Cossi, N. Rega, J. M. Millam, M. Klene, J. E. Knox, J. B. Cross, 
 V. Bakken, C. Adamo, J. Jaramillo, R. Gomperts, R. E. Stratmann, 
 O. Yazyev, A. J. Austin, R. Cammi, C. Pomelli, J. W. Ochterski, 
 R. L. Martin, K. Morokuma, V. G. Zakrzewski, G. A. Voth, 
 P. Salvador, J. J. Dannenberg, S. Dapprich, A. D. Daniels, 
 O. Farkas, J. B. Foresman, J. V. Ortiz, J. Cioslowski, 
 and D. J. Fox, Gaussian, Inc., Wallingford CT, 2013.
 
 ******************************************
 Gaussian 09:  EM64L-G09RevD.01 24-Apr-2013
                16-May-2019 
 ******************************************
 -------------------------------------------------
 # B2PLYP/def2tzvpp nosym scf(tight) force Pop=NPA
 -------------------------------------------------
 1/10=7,30=1,38=1/1,3;
 2/12=2,15=1,17=6,18=5,40=1/2;
 3/5=44,7=202,11=9,16=1,25=1,30=1,71=1,74=-47/1,2,3;
 4//1;
 5/5=2,32=2,38=5/2;
 8/6=4,10=1/1;
 9/15=2,16=-3/6;
 10/5=1,31=1/2;
 6/7=2,8=2,9=2,10=2,18=1,40=-1/1,7;
 7/12=2,29=1,30=1/1,2,3,16;
 1/10=7,30=1/3;
 99//99;
 -----
 xPert
 -----
 Symbolic Z-matrix:
 Charge =  0 Multiplicity = 1
 H                     0.        0.74857  -0.4694 
 H                     0.       -0.75857  -0.4694 
 O                     0.        0.        0.11735 
 

 GradGradGradGradGradGradGradGradGradGradGradGradGradGradGradGradGradGrad
 Berny optimization.
 Initialization pass.
 Trust Radius=3.00D-01 FncErr=1.00D-07 GrdErr=1.00D-07
 Number of steps in this run=      2 maximum allowed number of steps=      2.
 GradGradGradGradGradGradGradGradGradGradGradGradGradGradGradGradGradGrad

                          Input orientation:                          
 ---------------------------------------------------------------------
 Center     Atomic      Atomic             Coordinates (Angstroms)
 Number     Number       Type             X           Y           Z
 ---------------------------------------------------------------------
      1          1           0        0.000000    0.748568   -0.469403
      2          1           0        0.000000   -0.758568   -0.469403
      3          8           0        0.000000    0.000000    0.117351
 ---------------------------------------------------------------------
                    Distance matrix (angstroms):
                    1          2          3
     1  H    0.000000
     2  H    1.507136   0.000000
     3  O    0.951123   0.959013   0.000000
 Symmetry turned off by external request.
 Stoichiometry    H2O
 Framework group  CS[SG(H2O)]
 Deg. of freedom     3
 Full point group                 CS      NOp   2
 Rotational constants (GHZ):    820.1100312    441.4895008    286.9927890
 Standard basis: def2TZVPP (5D, 7F)
    59 basis functions,    85 primitive gaussians,    66 cartesian basis functions
     5 alpha electrons        5 beta electrons
       nuclear repulsion energy         9.2164328735 Hartrees.
 NAtoms=    3 NActive=    3 NUniq=    3 SFac= 1.00D+00 NAtFMM=   60 NAOKFM=F Big=F
 Integral buffers will be    131072 words long.
 Regular integral format.
 Two-electron integral symmetry is turned off.
 One-electron integrals computed using PRISM.
   1 Symmetry operations used in ECPInt.
 ECPInt:  NShTT=     276 NPrTT=     694 LenC2=     277 LenP2D=     681.
 LDataN:  DoStor=T MaxTD1= 6 Len=  172
 NBasis=    59 RedAO= T EigKep=  2.23D-03  NBF=    59
 NBsUse=    59 1.00D-06 EigRej= -1.00D+00 NBFU=    59
 ExpMin= 1.03D-01 ExpMax= 2.70D+04 ExpMxC= 9.22D+02 IAcc=1 IRadAn=         1 AccDes= 0.00D+00
 Harris functional with IExCor=  419 and IRadAn=       1 diagonalized for initial guess.
 HarFok:  IExCor=  419 AccDes= 0.00D+00 IRadAn=         1 IDoV= 1 UseB2=F ITyADJ=14
 ICtDFT=  3500011 ScaDFX=  1.000000  1.000000  1.000000  1.000000
 FoFCou: FMM=F IPFlag=           0 FMFlag=      100000 FMFlg1=           0
         NFxFlg=           0 DoJE=T BraDBF=F KetDBF=T FulRan=T
         wScrn=  0.000000 ICntrl=     500 IOpCl=  0 I1Cent=   200000004 NGrid=           0
         NMat0=    1 NMatS0=      1 NMatT0=    0 NMatD0=    1 NMtDS0=    0 NMtDT0=    0
 Symmetry not used in FoFCou.
 Keep R1 ints in memory in canonical form, NReq=3557649.
 Requested convergence on RMS density matrix=1.00D-08 within 128 cycles.
 Requested convergence on MAX density matrix=1.00D-06.
 Requested convergence on             energy=1.00D-06.
 No special actions if energy rises.
 Integral accuracy reduced to 1.0D-05 until final iterations.
 Initial convergence to 1.0D-05 achieved.  Increase integral accuracy.
 SCF Done:  E(RB2PLYP) =  -76.3298065908     A.U. after   10 cycles
            NFock= 10  Conv=0.35D-08     -V/T= 2.0023
 DoSCS=T DFT=T ScalE2(SS,OS)=  0.270000  0.270000
 ExpMin= 1.03D-01 ExpMax= 2.70D+04 ExpMxC= 9.22D+02 IAcc=3 IRadAn=         5 AccDes= 0.00D+00
 HarFok:  IExCor=  205 AccDes= 0.00D+00 IRadAn=         5 IDoV=-2 UseB2=F ITyADJ=14
 ICtDFT= 12500011 ScaDFX=  1.000000  1.000000  1.000000  1.000000
 Range of M.O.s used for correlation:     2    59
 NBasis=    59 NAE=     5 NBE=     5 NFC=     1 NFV=     0
 NROrb=     58 NOA=     4 NOB=     4 NVA=    54 NVB=    54
 DoSCS=T DFT=T ScalE2(SS,OS)=  0.270000  0.270000
 Fully direct method using O(ONN) memory.
 JobTyp=1 Pass  1:  I=   2 to   5 NPSUse=  1 ParTrn=F ParDer=F DoDerP=T.
 Spin components of T(2) and E(2):
     alpha-alpha T2 =       0.1157638807D-01 E2=     -0.1020819253D-01
     alpha-beta  T2 =       0.6715129299D-01 E2=     -0.6300169437D-01
     beta-beta   T2 =       0.1157638807D-01 E2=     -0.1020819253D-01
 E2(B2PLYP) =    -0.8341807943D-01 E(B2PLYP) =    -0.76413224670272D+02
          IDoAtm=111
          Differentiating once with respect to electric field.
                with respect to dipole field.
          Differentiating once with respect to nuclear coordinates.
 Keep R1 ints in memory in canonical form, NReq=3533389.
          There are     1 degrees of freedom in the 1st order CPHF.  IDoFFX=0 NUNeed=     1.
 LinEq1:  Iter=  0 NonCon=     1 RMS=1.88D-03 Max=1.53D-02 NDo=     1
 AX will form     1 AO Fock derivatives at one time.
 LinEq1:  Iter=  1 NonCon=     1 RMS=1.99D-04 Max=1.58D-03 NDo=     1
 LinEq1:  Iter=  2 NonCon=     1 RMS=5.30D-05 Max=4.39D-04 NDo=     1
 LinEq1:  Iter=  3 NonCon=     1 RMS=2.37D-05 Max=1.26D-04 NDo=     1
 LinEq1:  Iter=  4 NonCon=     1 RMS=5.75D-06 Max=3.52D-05 NDo=     1
 LinEq1:  Iter=  5 NonCon=     1 RMS=3.64D-07 Max=3.04D-06 NDo=     1
 LinEq1:  Iter=  6 NonCon=     1 RMS=5.41D-08 Max=4.96D-07 NDo=     1
 LinEq1:  Iter=  7 NonCon=     1 RMS=6.87D-09 Max=4.28D-08 NDo=     1
 LinEq1:  Iter=  8 NonCon=     1 RMS=1.50D-09 Max=1.12D-08 NDo=     1
 LinEq1:  Iter=  9 NonCon=     0 RMS=8.37D-11 Max=7.27D-10 NDo=     1
 Linear equations converged to 1.000D-10 1.000D-09 after     9 iterations.
 End of Minotr F.D. properties file   721 does not exist.
 End of Minotr F.D. properties file   722 does not exist.
 End of Minotr F.D. properties file   788 does not exist.

 **********************************************************************

            Population analysis using the SCF density.

 **********************************************************************

 Alpha  occ. eigenvalues --  -19.72504  -1.15522  -0.61016  -0.47208  -0.39659
 Alpha virt. eigenvalues --    0.06069   0.13606   0.42602   0.46103   0.49171
 Alpha virt. eigenvalues --    0.49392   0.60827   0.62618   0.71598   0.75108
 Alpha virt. eigenvalues --    0.84180   1.08198   1.24813   1.30909   1.79715
 Alpha virt. eigenvalues --    1.86442   1.89863   1.91336   1.99077   2.21395
 Alpha virt. eigenvalues --    2.51154   2.70816   2.86400   3.17489   3.27930
 Alpha virt. eigenvalues --    3.39710   3.41422   3.44310   3.50726   3.67183
 Alpha virt. eigenvalues --    3.70318   3.76725   3.77485   4.12504   4.22701
 Alpha virt. eigenvalues --    4.22986   4.29204   4.75104   4.78527   4.93214
 Alpha virt. eigenvalues --    5.11949   5.78759   6.33867   6.60511   6.63074
 Alpha virt. eigenvalues --    6.71226   6.73470   6.78443   6.96888   7.07386
 Alpha virt. eigenvalues --    7.58949   7.60818   7.82420  44.16427
          Condensed to atoms (all electrons):
               1          2          3
     1  H    0.480621  -0.028648   0.340252
     2  H   -0.028648   0.478677   0.338089
     3  O    0.340252   0.338089   7.741317
 Mulliken charges:
               1
     1  H    0.207776
     2  H    0.211882
     3  O   -0.419658
 Sum of Mulliken charges =   0.00000
 Mulliken charges with hydrogens summed into heavy atoms:
               1
     3  O    0.000000
 Electronic spatial extent (au):  <R**2>=             19.4151
 Charge=              0.0000 electrons
 Dipole moment (field-independent basis, Debye):
    X=              0.0000    Y=             -0.0123    Z=             -1.9991  Tot=              1.9992
 Quadrupole moment (field-independent basis, Debye-Ang):
   XX=             -7.4605   YY=             -4.3265   ZZ=             -6.2258
   XY=              0.0000   XZ=              0.0000   YZ=              0.0064
 Traceless Quadrupole moment (field-independent basis, Debye-Ang):
   XX=             -1.4563   YY=              1.6778   ZZ=             -0.2215
   XY=              0.0000   XZ=              0.0000   YZ=              0.0064
 Octapole moment (field-independent basis, Debye-Ang**2):
  XXX=              0.0000  YYY=             -0.0076  ZZZ=             -1.2067  XYY=              0.0000
  XXY=              0.0098  XXZ=             -0.3057  XZZ=              0.0000  YZZ=              0.0052
  YYZ=             -1.3239  XYZ=              0.0000
 Hexadecapole moment (field-independent basis, Debye-Ang**3):
 XXXX=             -6.1943 YYYY=             -6.0795 ZZZZ=             -6.9907 XXXY=              0.0000
 XXXZ=              0.0000 YYYX=              0.0000 YYYZ=              0.0057 ZZZX=              0.0000
 ZZZY=             -0.0122 XXYY=             -2.3516 XXZZ=             -2.2520 YYZZ=             -1.8407
 XXYZ=             -0.0047 YYXZ=              0.0000 ZZXY=              0.0000
 N-N= 9.216432873456D+00 E-N=-1.993093602385D+02  KE= 7.615190539062D+01
 ******************************Gaussian NBO Version 3.1******************************
             N A T U R A L   A T O M I C   O R B I T A L   A N D
          N A T U R A L   B O N D   O R B I T A L   A N A L Y S I S
 ******************************Gaussian NBO Version 3.1******************************
       /RESON  / : Allow strongly delocalized NBO set

 Analyzing the SCF density

 Job title: xPert                                                           

 Storage needed:     10799 in NPA ( 536870849 available)


 NATURAL POPULATIONS:  Natural atomic orbital occupancies 
                                                          
   NAO  Atom  No  lang   Type(AO)    Occupancy      Energy
 ----------------------------------------------------------
     1    H    1  S      Val( 1S)     0.53758       0.17741
     2    H    1  S      Ryd( 2S)     0.00141       0.82426
     3    H    1  S      Ryd( 3S)     0.00010       1.70067
     4    H    1  px     Ryd( 2p)     0.00207       1.69791
     5    H    1  px     Ryd( 3p)     0.00000       3.49039
     6    H    1  py     Ryd( 2p)     0.00030       2.41097
     7    H    1  py     Ryd( 3p)     0.00063       3.76883
     8    H    1  pz     Ryd( 2p)     0.00133       2.10540
     9    H    1  pz     Ryd( 3p)     0.00058       3.67335
    10    H    1  dxy    Ryd( 3d)     0.00001       3.84811
    11    H    1  dxz    Ryd( 3d)     0.00001       3.68729
    12    H    1  dyz    Ryd( 3d)     0.00003       4.18917
    13    H    1  dx2y2  Ryd( 3d)     0.00011       3.94643
    14    H    1  dz2    Ryd( 3d)     0.00002       3.92012

    15    H    2  S      Val( 1S)     0.53707       0.16685
    16    H    2  S      Ryd( 2S)     0.00141       0.81494
    17    H    2  S      Ryd( 3S)     0.00009       1.72109
    18    H    2  px     Ryd( 2p)     0.00205       1.67678
    19    H    2  px     Ryd( 3p)     0.00000       3.48947
    20    H    2  py     Ryd( 2p)     0.00030       2.40247
    21    H    2  py     Ryd( 3p)     0.00062       3.77491
    22    H    2  pz     Ryd( 2p)     0.00133       2.08200
    23    H    2  pz     Ryd( 3p)     0.00056       3.67341
    24    H    2  dxy    Ryd( 3d)     0.00001       3.84696
    25    H    2  dxz    Ryd( 3d)     0.00001       3.67807
    26    H    2  dyz    Ryd( 3d)     0.00002       4.17861
    27    H    2  dx2y2  Ryd( 3d)     0.00011       3.94336
    28    H    2  dz2    Ryd( 3d)     0.00002       3.91090

    29    O    3  S      Cor( 1S)     1.99986     -19.50223
    30    O    3  S      Val( 2S)     1.74236      -1.06292
    31    O    3  S      Ryd( 3S)     0.00056       2.19242
    32    O    3  S      Ryd( 4S)     0.00000       5.40276
    33    O    3  S      Ryd( 5S)     0.00000      40.59007
    34    O    3  px     Val( 2p)     1.99182      -0.39050
    35    O    3  px     Ryd( 3p)     0.00129       0.61187
    36    O    3  px     Ryd( 4p)     0.00000       2.67787
    37    O    3  py     Val( 2p)     1.45291      -0.30018
    38    O    3  py     Ryd( 3p)     0.00294       0.69491
    39    O    3  py     Ryd( 4p)     0.00001       3.34190
    40    O    3  pz     Val( 2p)     1.71158      -0.34830
    41    O    3  pz     Ryd( 3p)     0.00032       0.65779
    42    O    3  pz     Ryd( 4p)     0.00016       3.05146
    43    O    3  dxy    Ryd( 3d)     0.00000       2.33401
    44    O    3  dxy    Ryd( 4d)     0.00000       6.50938
    45    O    3  dxz    Ryd( 3d)     0.00248       2.18760
    46    O    3  dxz    Ryd( 4d)     0.00003       6.49026
    47    O    3  dyz    Ryd( 3d)     0.00185       3.52582
    48    O    3  dyz    Ryd( 4d)     0.00018       7.06562
    49    O    3  dx2y2  Ryd( 3d)     0.00087       2.72998
    50    O    3  dx2y2  Ryd( 4d)     0.00001       6.68652
    51    O    3  dz2    Ryd( 3d)     0.00259       2.48136
    52    O    3  dz2    Ryd( 4d)     0.00003       6.59742
    53    O    3  f(0)   Ryd( 4f)     0.00002       5.93736
    54    O    3  f(C1)  Ryd( 4f)     0.00003       5.58097
    55    O    3  f(S1)  Ryd( 4f)     0.00003       6.41302
    56    O    3  f(C2)  Ryd( 4f)     0.00008       6.31373
    57    O    3  f(S2)  Ryd( 4f)     0.00000       6.05473
    58    O    3  f(C3)  Ryd( 4f)     0.00019       5.86382
    59    O    3  f(S3)  Ryd( 4f)     0.00004       5.88341

 WARNING:  Population inversion found on atom  H    1
           Population inversion found on atom  H    2


 Summary of Natural Population Analysis:                  
                                                          
                                       Natural Population 
                Natural  -----------------------------------------------
    Atom  No    Charge         Core      Valence    Rydberg      Total
 -----------------------------------------------------------------------
      H    1    0.45582      0.00000     0.53758    0.00660     0.54418
      H    2    0.45639      0.00000     0.53707    0.00654     0.54361
      O    3   -0.91221      1.99986     6.89867    0.01369     8.91221
 =======================================================================
   * Total *    0.00000      1.99986     7.97332    0.02683    10.00000

                                 Natural Population      
 --------------------------------------------------------
   Core                       1.99986 ( 99.9928% of   2)
   Valence                    7.97332 ( 99.6664% of   8)
   Natural Minimal Basis      9.97317 ( 99.7317% of  10)
   Natural Rydberg Basis      0.02683 (  0.2683% of  10)
 --------------------------------------------------------

    Atom  No          Natural Electron Configuration
 ----------------------------------------------------------------------------
      H    1            1S( 0.54)
      H    2            1S( 0.54)
      O    3      [core]2S( 1.74)2p( 5.16)3d( 0.01)


 NBO analysis skipped by request.
   1 Symmetry operations used in ECPInt.
 ECPInt:  NShTT=     276 NPrTT=     694 LenC2=     277 LenP2D=     681.
 LDataN:  DoStor=T MaxTD1= 7 Len=  274
 Calling FoFJK, ICntrl=  10002127 FMM=F ISym2X=0 I1Cent= 0 IOpClX= 0 NMat=1 NMatS=1 NMatT=0.
 -------------------------------------------------------------------
 Center     Atomic                   Forces (Hartrees/Bohr)
 Number     Number              X              Y              Z
 -------------------------------------------------------------------
      1        1           0.000000000    0.007237579   -0.004595175
      2        1           0.000000000   -0.000600699    0.000599195
      3        8           0.000000000   -0.006636880    0.003995980
 -------------------------------------------------------------------
 Cartesian Forces:  Max     0.007237579 RMS     0.003861981

 GradGradGradGradGradGradGradGradGradGradGradGradGradGradGradGradGradGrad
 Berny optimization.
 Search for a local minimum.
 Step number   1 out of a maximum of    2
 All quantities printed in internal units (Hartrees-Bohrs-Radians)
 Second derivative matrix not updated -- first step.
 The second derivative matrix:
                          X1        Y1        Z1        X2        Y2
           X1           1.00000
           Y1           0.00000   0.37457
           Z1           0.00000  -0.25478   0.24923
           X2           0.00000   0.00000   0.00000   1.00000
           Y2           0.00000  -0.01854  -0.02365   0.00000   0.36664
           Z2           0.00000   0.02397   0.03058   0.00000   0.24592
           X3           0.00000   0.00000   0.00000   0.00000   0.00000
           Y3           0.00000  -0.35603   0.27843   0.00000  -0.34810
           Z3           0.00000   0.23081  -0.27981   0.00000  -0.22227
                          Z2        X3        Y3        Z3
           Z2           0.23893
           X3           0.00000   1.00000
           Y3          -0.26989   0.00000   0.70413
           Z3          -0.26951   0.00000  -0.00855   0.54933
 ITU=  0
     Eigenvalues ---    0.14675   0.88123   1.01659
 Angle between quadratic step and forces=  46.63 degrees.
 Linear search not attempted -- first point.
 TrRot=  0.000000 -0.001738 -0.000539  0.000000  0.000000  0.000000
 Variable       Old X    -DE/DX   Delta X   Delta X   Delta X     New X
                                 (Linear)    (Quad)   (Total)
    X1        0.00000   0.00000   0.00000   0.00000   0.00000   0.00000
    Y1        1.41459   0.00724   0.00000   0.01524   0.01350   1.42809
    Z1       -0.88704  -0.00460   0.00000  -0.00188  -0.00242  -0.88946
    X2        0.00000   0.00000   0.00000   0.00000   0.00000   0.00000
    Y2       -1.43349  -0.00060   0.00000  -0.00717  -0.00891  -1.44240
    Z2       -0.88704   0.00060   0.00000   0.00438   0.00384  -0.88320
    X3        0.00000   0.00000   0.00000   0.00000   0.00000   0.00000
    Y3        0.00000  -0.00664   0.00000  -0.00285  -0.00459  -0.00459
    Z3        0.22176   0.00400   0.00000  -0.00088  -0.00142   0.22034
         Item               Value     Threshold  Converged?
 Maximum Force            0.007238     0.000450     NO 
 RMS     Force            0.003862     0.000300     NO 
 Maximum Displacement     0.013502     0.001800     NO 
 RMS     Displacement     0.005826     0.001200     NO 
 Predicted change in Energy=-7.064241D-05
 GradGradGradGradGradGradGradGradGradGradGradGradGradGradGradGradGradGrad

 1\1\GINC-CCWSGE0250\Force\RB2PLYP-FC\def2TZVPP\H2O1\ALLOUCHE\16-May-20
 19\0\\# B2PLYP/def2tzvpp nosym scf(tight) force Pop=NPA\\xPert\\0,1\H,
 0.,0.748568,-0.469403\H,0.,-0.758568,-0.469403\O,0.,0.,0.117351\\Versi
 on=EM64L-G09RevD.01\HF=-76.3298066\MP2=-76.4132247\RMSD=3.505e-09\RMSF
 =3.862e-03\Dipole=0.,-0.0046442,-0.7681494\PG=CS [SG(H2O1)]\\@


     ON THE SURVIVAL OF THE FITTEST -
 "STRONG REPRESENTATIVES FROM EACH PAST ERA THRIVE TODAY,
 SUCH AS PROGRAMMING IN THE THIRTY YEAR OLD LANGUAGE KNOWN
 AS FORTRAN, AND EVEN IN THE ANCIENT SCRIPT KNOWN AS DIRECT
 MACHINE CODE. SOME PEOPLE MIGHT LOOK ON SUCH RELICS AS LIVING
 FOSSILS; OTHERS WOULD POINT OUT THAT EVEN A VERY OLD SPECIES
 MIGHT STILL BE FILLING A PARTICULAR ECOLOGICAL NICHE."
     -- ALAN KAY, SCI.AM. SEPTEMBER 1984
 Job cpu time:       0 days  0 hours  0 minutes 14.9 seconds.
 File lengths (MBytes):  RWF=      5 Int=      0 D2E=      0 Chk=      1 Scr=      1
 Normal termination of Gaussian 09 at Thu May 16 09:03:49 2019.
