 Entering Gaussian System, Link 0=/pbs/throng/ilm/sl6/allouche/Gaussian09D/g09/g09
 Initial command:
 /pbs/throng/ilm/sl6/allouche/Gaussian09D/g09/l1.exe "/scratch/6331986.1.long/Gau-440978.inp" -scrdir="/scratch/6331986.1.long/"
 Entering Link 1 = /pbs/throng/ilm/sl6/allouche/Gaussian09D/g09/l1.exe PID=    440980.
  
 Copyright (c) 1988,1990,1992,1993,1995,1998,2003,2009,2013,
            Gaussian, Inc.  All Rights Reserved.
  
 This is part of the Gaussian(R) 09 program.  It is based on
 the Gaussian(R) 03 system (copyright 2003, Gaussian, Inc.),
 the Gaussian(R) 98 system (copyright 1998, Gaussian, Inc.),
 the Gaussian(R) 94 system (copyright 1995, Gaussian, Inc.),
 the Gaussian 92(TM) system (copyright 1992, Gaussian, Inc.),
 the Gaussian 90(TM) system (copyright 1990, Gaussian, Inc.),
 the Gaussian 88(TM) system (copyright 1988, Gaussian, Inc.),
 the Gaussian 86(TM) system (copyright 1986, Carnegie Mellon
 University), and the Gaussian 82(TM) system (copyright 1983,
 Carnegie Mellon University). Gaussian is a federally registered
 trademark of Gaussian, Inc.
  
 This software contains proprietary and confidential information,
 including trade secrets, belonging to Gaussian, Inc.
  
 This software is provided under written license and may be
 used, copied, transmitted, or stored only in accord with that
 written license.
  
 The following legend is applicable only to US Government
 contracts under FAR:
  
                    RESTRICTED RIGHTS LEGEND
  
 Use, reproduction and disclosure by the US Government is
 subject to restrictions as set forth in subparagraphs (a)
 and (c) of the Commercial Computer Software - Restricted
 Rights clause in FAR 52.227-19.
  
 Gaussian, Inc.
 340 Quinnipiac St., Bldg. 40, Wallingford CT 06492
  
  
 ---------------------------------------------------------------
 Warning -- This program may not be used in any manner that
 competes with the business of Gaussian, Inc. or will provide
 assistance to any competitor of Gaussian, Inc.  The licensee
 of this program is prohibited from giving any competitor of
 Gaussian, Inc. access to this program.  By using this program,
 the user acknowledges that Gaussian, Inc. is engaged in the
 business of creating and licensing software in the field of
 computational chemistry and represents and warrants to the
 licensee that it is not a competitor of Gaussian, Inc. and that
 it will not use this program in any manner prohibited above.
 ---------------------------------------------------------------
  

 Cite this work as:
 Gaussian 09, Revision D.01,
 M. J. Frisch, G. W. Trucks, H. B. Schlegel, G. E. Scuseria, 
 M. A. Robb, J. R. Cheeseman, G. Scalmani, V. Barone, B. Mennucci, 
 G. A. Petersson, H. Nakatsuji, M. Caricato, X. Li, H. P. Hratchian, 
 A. F. Izmaylov, J. Bloino, G. Zheng, J. L. Sonnenberg, M. Hada, 
 M. Ehara, K. Toyota, R. Fukuda, J. Hasegawa, M. Ishida, T. Nakajima, 
 Y. Honda, O. Kitao, H. Nakai, T. Vreven, J. A. Montgomery, Jr., 
 J. E. Peralta, F. Ogliaro, M. Bearpark, J. J. Heyd, E. Brothers, 
 K. N. Kudin, V. N. Staroverov, T. Keith, R. Kobayashi, J. Normand, 
 K. Raghavachari, A. Rendell, J. C. Burant, S. S. Iyengar, J. Tomasi, 
 M. Cossi, N. Rega, J. M. Millam, M. Klene, J. E. Knox, J. B. Cross, 
 V. Bakken, C. Adamo, J. Jaramillo, R. Gomperts, R. E. Stratmann, 
 O. Yazyev, A. J. Austin, R. Cammi, C. Pomelli, J. W. Ochterski, 
 R. L. Martin, K. Morokuma, V. G. Zakrzewski, G. A. Voth, 
 P. Salvador, J. J. Dannenberg, S. Dapprich, A. D. Daniels, 
 O. Farkas, J. B. Foresman, J. V. Ortiz, J. Cioslowski, 
 and D. J. Fox, Gaussian, Inc., Wallingford CT, 2013.
 
 ******************************************
 Gaussian 09:  EM64L-G09RevD.01 24-Apr-2013
                16-May-2019 
 ******************************************
 -------------------------------------------------
 # B2PLYP/def2tzvpp nosym scf(tight) force Pop=NPA
 -------------------------------------------------
 1/10=7,30=1,38=1/1,3;
 2/12=2,15=1,17=6,18=5,40=1/2;
 3/5=44,7=202,11=9,16=1,25=1,30=1,71=1,74=-47/1,2,3;
 4//1;
 5/5=2,32=2,38=5/2;
 8/6=4,10=1/1;
 9/15=2,16=-3/6;
 10/5=1,31=1/2;
 6/7=2,8=2,9=2,10=2,18=1,40=-1/1,7;
 7/12=2,29=1,30=1/1,2,3,16;
 1/10=7,30=1/3;
 99//99;
 -----
 xPert
 -----
 Symbolic Z-matrix:
 Charge =  0 Multiplicity = 1
 H                     0.        0.75857  -0.4694 
 H                     0.       -0.75857  -0.4794 
 O                     0.        0.        0.11735 
 

 GradGradGradGradGradGradGradGradGradGradGradGradGradGradGradGradGradGrad
 Berny optimization.
 Initialization pass.
 Trust Radius=3.00D-01 FncErr=1.00D-07 GrdErr=1.00D-07
 Number of steps in this run=      2 maximum allowed number of steps=      2.
 GradGradGradGradGradGradGradGradGradGradGradGradGradGradGradGradGradGrad

                          Input orientation:                          
 ---------------------------------------------------------------------
 Center     Atomic      Atomic             Coordinates (Angstroms)
 Number     Number       Type             X           Y           Z
 ---------------------------------------------------------------------
      1          1           0        0.000000    0.758568   -0.469403
      2          1           0        0.000000   -0.758568   -0.479403
      3          8           0        0.000000    0.000000    0.117351
 ---------------------------------------------------------------------
                    Distance matrix (angstroms):
                    1          2          3
     1  H    0.000000
     2  H    1.517169   0.000000
     3  O    0.959013   0.965164   0.000000
 Symmetry turned off by external request.
 Stoichiometry    H2O
 Framework group  CS[SG(H2O)]
 Deg. of freedom     3
 Full point group                 CS      NOp   2
 Rotational constants (GHZ):    806.3175400    435.6843597    282.8497615
 Standard basis: def2TZVPP (5D, 7F)
    59 basis functions,    85 primitive gaussians,    66 cartesian basis functions
     5 alpha electrons        5 beta electrons
       nuclear repulsion energy         9.1493595192 Hartrees.
 NAtoms=    3 NActive=    3 NUniq=    3 SFac= 1.00D+00 NAtFMM=   60 NAOKFM=F Big=F
 Integral buffers will be    131072 words long.
 Regular integral format.
 Two-electron integral symmetry is turned off.
 One-electron integrals computed using PRISM.
   1 Symmetry operations used in ECPInt.
 ECPInt:  NShTT=     276 NPrTT=     694 LenC2=     277 LenP2D=     681.
 LDataN:  DoStor=T MaxTD1= 6 Len=  172
 NBasis=    59 RedAO= T EigKep=  2.29D-03  NBF=    59
 NBsUse=    59 1.00D-06 EigRej= -1.00D+00 NBFU=    59
 ExpMin= 1.03D-01 ExpMax= 2.70D+04 ExpMxC= 9.22D+02 IAcc=1 IRadAn=         1 AccDes= 0.00D+00
 Harris functional with IExCor=  419 and IRadAn=       1 diagonalized for initial guess.
 HarFok:  IExCor=  419 AccDes= 0.00D+00 IRadAn=         1 IDoV= 1 UseB2=F ITyADJ=14
 ICtDFT=  3500011 ScaDFX=  1.000000  1.000000  1.000000  1.000000
 FoFCou: FMM=F IPFlag=           0 FMFlag=      100000 FMFlg1=           0
         NFxFlg=           0 DoJE=T BraDBF=F KetDBF=T FulRan=T
         wScrn=  0.000000 ICntrl=     500 IOpCl=  0 I1Cent=   200000004 NGrid=           0
         NMat0=    1 NMatS0=      1 NMatT0=    0 NMatD0=    1 NMtDS0=    0 NMtDT0=    0
 Symmetry not used in FoFCou.
 Keep R1 ints in memory in canonical form, NReq=3557635.
 Requested convergence on RMS density matrix=1.00D-08 within 128 cycles.
 Requested convergence on MAX density matrix=1.00D-06.
 Requested convergence on             energy=1.00D-06.
 No special actions if energy rises.
 Integral accuracy reduced to 1.0D-05 until final iterations.
 Initial convergence to 1.0D-05 achieved.  Increase integral accuracy.
 SCF Done:  E(RB2PLYP) =  -76.3296049962     A.U. after   10 cycles
            NFock= 10  Conv=0.35D-08     -V/T= 2.0027
 DoSCS=T DFT=T ScalE2(SS,OS)=  0.270000  0.270000
 ExpMin= 1.03D-01 ExpMax= 2.70D+04 ExpMxC= 9.22D+02 IAcc=3 IRadAn=         5 AccDes= 0.00D+00
 HarFok:  IExCor=  205 AccDes= 0.00D+00 IRadAn=         5 IDoV=-2 UseB2=F ITyADJ=14
 ICtDFT= 12500011 ScaDFX=  1.000000  1.000000  1.000000  1.000000
 Range of M.O.s used for correlation:     2    59
 NBasis=    59 NAE=     5 NBE=     5 NFC=     1 NFV=     0
 NROrb=     58 NOA=     4 NOB=     4 NVA=    54 NVB=    54
 DoSCS=T DFT=T ScalE2(SS,OS)=  0.270000  0.270000
 Fully direct method using O(ONN) memory.
 JobTyp=1 Pass  1:  I=   2 to   5 NPSUse=  1 ParTrn=F ParDer=F DoDerP=T.
 Spin components of T(2) and E(2):
     alpha-alpha T2 =       0.1167480376D-01 E2=     -0.1023386485D-01
     alpha-beta  T2 =       0.6783115959D-01 E2=     -0.6318115767D-01
     beta-beta   T2 =       0.1167480376D-01 E2=     -0.1023386485D-01
 E2(B2PLYP) =    -0.8364888737D-01 E(B2PLYP) =    -0.76413253883544D+02
          IDoAtm=111
          Differentiating once with respect to electric field.
                with respect to dipole field.
          Differentiating once with respect to nuclear coordinates.
 Keep R1 ints in memory in canonical form, NReq=3533351.
          There are     1 degrees of freedom in the 1st order CPHF.  IDoFFX=0 NUNeed=     1.
 LinEq1:  Iter=  0 NonCon=     1 RMS=1.90D-03 Max=1.55D-02 NDo=     1
 AX will form     1 AO Fock derivatives at one time.
 LinEq1:  Iter=  1 NonCon=     1 RMS=2.05D-04 Max=1.63D-03 NDo=     1
 LinEq1:  Iter=  2 NonCon=     1 RMS=5.60D-05 Max=4.67D-04 NDo=     1
 LinEq1:  Iter=  3 NonCon=     1 RMS=2.51D-05 Max=1.36D-04 NDo=     1
 LinEq1:  Iter=  4 NonCon=     1 RMS=6.00D-06 Max=3.60D-05 NDo=     1
 LinEq1:  Iter=  5 NonCon=     1 RMS=3.94D-07 Max=3.38D-06 NDo=     1
 LinEq1:  Iter=  6 NonCon=     1 RMS=5.69D-08 Max=5.08D-07 NDo=     1
 LinEq1:  Iter=  7 NonCon=     1 RMS=6.27D-09 Max=3.65D-08 NDo=     1
 LinEq1:  Iter=  8 NonCon=     1 RMS=1.43D-09 Max=9.69D-09 NDo=     1
 LinEq1:  Iter=  9 NonCon=     0 RMS=8.45D-11 Max=6.81D-10 NDo=     1
 Linear equations converged to 1.000D-10 1.000D-09 after     9 iterations.
 End of Minotr F.D. properties file   721 does not exist.
 End of Minotr F.D. properties file   722 does not exist.
 End of Minotr F.D. properties file   788 does not exist.

 **********************************************************************

            Population analysis using the SCF density.

 **********************************************************************

 Alpha  occ. eigenvalues --  -19.72620  -1.15196  -0.60678  -0.47134  -0.39602
 Alpha virt. eigenvalues --    0.05975   0.13504   0.42362   0.46195   0.48747
 Alpha virt. eigenvalues --    0.49421   0.60664   0.62607   0.71426   0.74989
 Alpha virt. eigenvalues --    0.84022   1.07827   1.24484   1.30428   1.80637
 Alpha virt. eigenvalues --    1.86243   1.89562   1.92115   1.98969   2.21318
 Alpha virt. eigenvalues --    2.51110   2.70649   2.86258   3.17494   3.27771
 Alpha virt. eigenvalues --    3.39344   3.40705   3.42885   3.49216   3.66536
 Alpha virt. eigenvalues --    3.70150   3.76733   3.76995   4.11418   4.21562
 Alpha virt. eigenvalues --    4.21983   4.28094   4.73349   4.77226   4.92067
 Alpha virt. eigenvalues --    5.10359   5.77424   6.31431   6.58683   6.61935
 Alpha virt. eigenvalues --    6.70848   6.71137   6.78907   6.95263   7.06152
 Alpha virt. eigenvalues --    7.56651   7.58685   7.80129  44.14006
          Condensed to atoms (all electrons):
               1          2          3
     1  H    0.479573  -0.027923   0.336640
     2  H   -0.027923   0.478119   0.335004
     3  O    0.336640   0.335004   7.754865
 Mulliken charges:
               1
     1  H    0.211710
     2  H    0.214799
     3  O   -0.426510
 Sum of Mulliken charges =   0.00000
 Mulliken charges with hydrogens summed into heavy atoms:
               1
     3  O    0.000000
 Electronic spatial extent (au):  <R**2>=             19.5049
 Charge=              0.0000 electrons
 Dipole moment (field-independent basis, Debye):
    X=              0.0000    Y=              0.0037    Z=             -2.0053  Tot=              2.0053
 Quadrupole moment (field-independent basis, Debye-Ang):
   XX=             -7.4762   YY=             -4.3169   ZZ=             -6.2224
   XY=              0.0000   XZ=              0.0000   YZ=              0.0160
 Traceless Quadrupole moment (field-independent basis, Debye-Ang):
   XX=             -1.4710   YY=              1.6882   ZZ=             -0.2173
   XY=              0.0000   XZ=              0.0000   YZ=              0.0160
 Octapole moment (field-independent basis, Debye-Ang**2):
  XXX=              0.0000  YYY=              0.0104  ZZZ=             -1.1829  XYY=              0.0000
  XXY=              0.0039  XXZ=             -0.2938  XZZ=              0.0000  YZZ=             -0.0106
  YYZ=             -1.3381  XYZ=              0.0000
 Hexadecapole moment (field-independent basis, Debye-Ang**3):
 XXXX=             -6.2153 YYYY=             -6.1362 ZZZZ=             -7.0385 XXXY=              0.0000
 XXXZ=              0.0000 YYYX=              0.0000 YYYZ=             -0.0024 ZZZX=              0.0000
 ZZZY=             -0.0006 XXYY=             -2.3714 XXZZ=             -2.2653 YYZZ=             -1.8457
 XXYZ=             -0.0046 YYXZ=              0.0000 ZZXY=              0.0000
 N-N= 9.149359519170D+00 E-N=-1.991646991266D+02  KE= 7.612602086392D+01
 ******************************Gaussian NBO Version 3.1******************************
             N A T U R A L   A T O M I C   O R B I T A L   A N D
          N A T U R A L   B O N D   O R B I T A L   A N A L Y S I S
 ******************************Gaussian NBO Version 3.1******************************
       /RESON  / : Allow strongly delocalized NBO set

 Analyzing the SCF density

 Job title: xPert                                                           

 Storage needed:     10799 in NPA ( 536870849 available)


 NATURAL POPULATIONS:  Natural atomic orbital occupancies 
                                                          
   NAO  Atom  No  lang   Type(AO)    Occupancy      Energy
 ----------------------------------------------------------
     1    H    1  S      Val( 1S)     0.53682       0.16830
     2    H    1  S      Ryd( 2S)     0.00145       0.81168
     3    H    1  S      Ryd( 3S)     0.00010       1.72296
     4    H    1  px     Ryd( 2p)     0.00206       1.67784
     5    H    1  px     Ryd( 3p)     0.00000       3.48810
     6    H    1  py     Ryd( 2p)     0.00030       2.40247
     7    H    1  py     Ryd( 3p)     0.00063       3.77380
     8    H    1  pz     Ryd( 2p)     0.00133       2.08302
     9    H    1  pz     Ryd( 3p)     0.00057       3.67166
    10    H    1  dxy    Ryd( 3d)     0.00001       3.84701
    11    H    1  dxz    Ryd( 3d)     0.00000       3.67813
    12    H    1  dyz    Ryd( 3d)     0.00003       4.17731
    13    H    1  dx2y2  Ryd( 3d)     0.00011       3.94189
    14    H    1  dz2    Ryd( 3d)     0.00002       3.91051

    15    H    2  S      Val( 1S)     0.53647       0.16027
    16    H    2  S      Ryd( 2S)     0.00144       0.80500
    17    H    2  S      Ryd( 3S)     0.00009       1.73801
    18    H    2  px     Ryd( 2p)     0.00205       1.66172
    19    H    2  px     Ryd( 3p)     0.00000       3.48732
    20    H    2  py     Ryd( 2p)     0.00031       2.38394
    21    H    2  py     Ryd( 3p)     0.00060       3.77530
    22    H    2  pz     Ryd( 2p)     0.00132       2.07826
    23    H    2  pz     Ryd( 3p)     0.00057       3.67476
    24    H    2  dxy    Ryd( 3d)     0.00001       3.83749
    25    H    2  dxz    Ryd( 3d)     0.00000       3.67946
    26    H    2  dyz    Ryd( 3d)     0.00003       4.16895
    27    H    2  dx2y2  Ryd( 3d)     0.00010       3.93072
    28    H    2  dz2    Ryd( 3d)     0.00002       3.91216

    29    O    3  S      Cor( 1S)     1.99986     -19.50648
    30    O    3  S      Val( 2S)     1.74716      -1.06458
    31    O    3  S      Ryd( 3S)     0.00055       2.20770
    32    O    3  S      Ryd( 4S)     0.00000       2.88692
    33    O    3  S      Ryd( 5S)     0.00000      43.06317
    34    O    3  px     Val( 2p)     1.99193      -0.39003
    35    O    3  px     Ryd( 3p)     0.00122       0.60593
    36    O    3  px     Ryd( 4p)     0.00000       2.68575
    37    O    3  py     Val( 2p)     1.45275      -0.30070
    38    O    3  py     Ryd( 3p)     0.00281       0.68690
    39    O    3  py     Ryd( 4p)     0.00001       3.33644
    40    O    3  pz     Val( 2p)     1.70844      -0.34775
    41    O    3  pz     Ryd( 3p)     0.00031       0.65126
    42    O    3  pz     Ryd( 4p)     0.00016       3.05392
    43    O    3  dxy    Ryd( 3d)     0.00000       2.32157
    44    O    3  dxy    Ryd( 4d)     0.00000       6.50996
    45    O    3  dxz    Ryd( 3d)     0.00245       2.17847
    46    O    3  dxz    Ryd( 4d)     0.00003       6.49111
    47    O    3  dyz    Ryd( 3d)     0.00188       3.48298
    48    O    3  dyz    Ryd( 4d)     0.00018       7.06137
    49    O    3  dx2y2  Ryd( 3d)     0.00087       2.70530
    50    O    3  dx2y2  Ryd( 4d)     0.00001       6.68596
    51    O    3  dz2    Ryd( 3d)     0.00256       2.47098
    52    O    3  dz2    Ryd( 4d)     0.00003       6.59932
    53    O    3  f(0)   Ryd( 4f)     0.00002       5.92666
    54    O    3  f(C1)  Ryd( 4f)     0.00003       5.57391
    55    O    3  f(S1)  Ryd( 4f)     0.00002       6.39879
    56    O    3  f(C2)  Ryd( 4f)     0.00008       6.29857
    57    O    3  f(S2)  Ryd( 4f)     0.00000       6.04588
    58    O    3  f(C3)  Ryd( 4f)     0.00019       5.85442
    59    O    3  f(S3)  Ryd( 4f)     0.00004       5.87245

 WARNING:  Population inversion found on atom  H    1
           Population inversion found on atom  H    2


 Summary of Natural Population Analysis:                  
                                                          
                                       Natural Population 
                Natural  -----------------------------------------------
    Atom  No    Charge         Core      Valence    Rydberg      Total
 -----------------------------------------------------------------------
      H    1    0.45658      0.00000     0.53682    0.00660     0.54342
      H    2    0.45698      0.00000     0.53647    0.00655     0.54302
      O    3   -0.91356      1.99986     6.90029    0.01342     8.91356
 =======================================================================
   * Total *    0.00000      1.99986     7.97358    0.02656    10.00000

                                 Natural Population      
 --------------------------------------------------------
   Core                       1.99986 ( 99.9930% of   2)
   Valence                    7.97358 ( 99.6698% of   8)
   Natural Minimal Basis      9.97344 ( 99.7344% of  10)
   Natural Rydberg Basis      0.02656 (  0.2656% of  10)
 --------------------------------------------------------

    Atom  No          Natural Electron Configuration
 ----------------------------------------------------------------------------
      H    1            1S( 0.54)
      H    2            1S( 0.54)
      O    3      [core]2S( 1.75)2p( 5.15)3d( 0.01)


 NBO analysis skipped by request.
   1 Symmetry operations used in ECPInt.
 ECPInt:  NShTT=     276 NPrTT=     694 LenC2=     277 LenP2D=     681.
 LDataN:  DoStor=T MaxTD1= 7 Len=  274
 Calling FoFJK, ICntrl=  10002127 FMM=F ISym2X=0 I1Cent= 0 IOpClX= 0 NMat=1 NMatS=1 NMatT=0.
 -------------------------------------------------------------------
 Center     Atomic                   Forces (Hartrees/Bohr)
 Number     Number              X              Y              Z
 -------------------------------------------------------------------
      1        1           0.000000000    0.000586207    0.000219801
      2        1           0.000000000    0.004333003    0.004082333
      3        8           0.000000000   -0.004919209   -0.004302133
 -------------------------------------------------------------------
 Cartesian Forces:  Max     0.004919209 RMS     0.002954080

 GradGradGradGradGradGradGradGradGradGradGradGradGradGradGradGradGradGrad
 Berny optimization.
 Search for a local minimum.
 Step number   1 out of a maximum of    2
 All quantities printed in internal units (Hartrees-Bohrs-Radians)
 Second derivative matrix not updated -- first step.
 The second derivative matrix:
                          X1        Y1        Z1        X2        Y2
           X1           1.00000
           Y1           0.00000   0.36664
           Z1           0.00000  -0.24592   0.23893
           X2           0.00000   0.00000   0.00000   1.00000
           Y2           0.00000  -0.01831  -0.02367   0.00000   0.35428
           Z2           0.00000   0.02328   0.03009   0.00000   0.24087
           X3           0.00000   0.00000   0.00000   0.00000   0.00000
           Y3           0.00000  -0.34833   0.26959   0.00000  -0.33597
           Z3           0.00000   0.22264  -0.26903   0.00000  -0.21720
                          Z2        X3        Y3        Z3
           Z2           0.23759
           X3           0.00000   1.00000
           Y3          -0.26415   0.00000   0.68431
           Z3          -0.26768   0.00000  -0.00544   0.53671
 ITU=  0
     Eigenvalues ---    0.14443   0.85914   0.98796
 Angle between quadratic step and forces=  30.65 degrees.
 Linear search not attempted -- first point.
 TrRot=  0.000000 -0.001351 -0.001897  0.000000  0.000000  0.000000
 Variable       Old X    -DE/DX   Delta X   Delta X   Delta X     New X
                                 (Linear)    (Quad)   (Total)
    X1        0.00000   0.00000   0.00000   0.00000   0.00000   0.00000
    Y1        1.43349   0.00059   0.00000   0.00245   0.00110   1.43458
    Z1       -0.88704   0.00022   0.00000   0.00195   0.00006  -0.88699
    X2        0.00000   0.00000   0.00000   0.00000   0.00000   0.00000
    Y2       -1.43349   0.00433   0.00000   0.00382   0.00247  -1.43102
    Z2       -0.90594   0.00408   0.00000   0.00685   0.00495  -0.90099
    X3        0.00000   0.00000   0.00000   0.00000   0.00000   0.00000
    Y3        0.00000  -0.00492   0.00000  -0.00222  -0.00357  -0.00357
    Z3        0.22176  -0.00430   0.00000  -0.00311  -0.00501   0.21675
         Item               Value     Threshold  Converged?
 Maximum Force            0.004919     0.000450     NO 
 RMS     Force            0.002954     0.000300     NO 
 Maximum Displacement     0.005010     0.001800     NO 
 RMS     Displacement     0.002782     0.001200     NO 
 Predicted change in Energy=-3.533870D-05
 GradGradGradGradGradGradGradGradGradGradGradGradGradGradGradGradGradGrad

 1\1\GINC-CCWSGE1237\Force\RB2PLYP-FC\def2TZVPP\H2O1\ALLOUCHE\16-May-20
 19\0\\# B2PLYP/def2tzvpp nosym scf(tight) force Pop=NPA\\xPert\\0,1\H,
 0.,0.758568,-0.469403\H,0.,-0.758568,-0.479403\O,0.,0.,0.117351\\Versi
 on=EM64L-G09RevD.01\HF=-76.329605\MP2=-76.4132539\RMSD=3.495e-09\RMSF=
 2.954e-03\Dipole=0.,0.0014837,-0.7701325\PG=CS [SG(H2O1)]\\@


 NOTHING WILL BE ATTEMPTED IF ALL POSSIBLE OBJECTIONS
 MUST FIRST BE OVERCOME.

                               -- THE GOLDEN PRINCIPLE,
                    PAUL DICKSON'S "THE OFFICIAL RULES"
 Job cpu time:       0 days  0 hours  0 minutes 17.9 seconds.
 File lengths (MBytes):  RWF=      5 Int=      0 D2E=      0 Chk=      1 Scr=      1
 Normal termination of Gaussian 09 at Thu May 16 09:04:06 2019.
