 Entering Gaussian System, Link 0=/pbs/throng/ilm/sl6/allouche/Gaussian09D/g09/g09
 Initial command:
 /pbs/throng/ilm/sl6/allouche/Gaussian09D/g09/l1.exe "/scratch/6331995.1.long/Gau-130911.inp" -scrdir="/scratch/6331995.1.long/"
 Entering Link 1 = /pbs/throng/ilm/sl6/allouche/Gaussian09D/g09/l1.exe PID=    130912.
  
 Copyright (c) 1988,1990,1992,1993,1995,1998,2003,2009,2013,
            Gaussian, Inc.  All Rights Reserved.
  
 This is part of the Gaussian(R) 09 program.  It is based on
 the Gaussian(R) 03 system (copyright 2003, Gaussian, Inc.),
 the Gaussian(R) 98 system (copyright 1998, Gaussian, Inc.),
 the Gaussian(R) 94 system (copyright 1995, Gaussian, Inc.),
 the Gaussian 92(TM) system (copyright 1992, Gaussian, Inc.),
 the Gaussian 90(TM) system (copyright 1990, Gaussian, Inc.),
 the Gaussian 88(TM) system (copyright 1988, Gaussian, Inc.),
 the Gaussian 86(TM) system (copyright 1986, Carnegie Mellon
 University), and the Gaussian 82(TM) system (copyright 1983,
 Carnegie Mellon University). Gaussian is a federally registered
 trademark of Gaussian, Inc.
  
 This software contains proprietary and confidential information,
 including trade secrets, belonging to Gaussian, Inc.
  
 This software is provided under written license and may be
 used, copied, transmitted, or stored only in accord with that
 written license.
  
 The following legend is applicable only to US Government
 contracts under FAR:
  
                    RESTRICTED RIGHTS LEGEND
  
 Use, reproduction and disclosure by the US Government is
 subject to restrictions as set forth in subparagraphs (a)
 and (c) of the Commercial Computer Software - Restricted
 Rights clause in FAR 52.227-19.
  
 Gaussian, Inc.
 340 Quinnipiac St., Bldg. 40, Wallingford CT 06492
  
  
 ---------------------------------------------------------------
 Warning -- This program may not be used in any manner that
 competes with the business of Gaussian, Inc. or will provide
 assistance to any competitor of Gaussian, Inc.  The licensee
 of this program is prohibited from giving any competitor of
 Gaussian, Inc. access to this program.  By using this program,
 the user acknowledges that Gaussian, Inc. is engaged in the
 business of creating and licensing software in the field of
 computational chemistry and represents and warrants to the
 licensee that it is not a competitor of Gaussian, Inc. and that
 it will not use this program in any manner prohibited above.
 ---------------------------------------------------------------
  

 Cite this work as:
 Gaussian 09, Revision D.01,
 M. J. Frisch, G. W. Trucks, H. B. Schlegel, G. E. Scuseria, 
 M. A. Robb, J. R. Cheeseman, G. Scalmani, V. Barone, B. Mennucci, 
 G. A. Petersson, H. Nakatsuji, M. Caricato, X. Li, H. P. Hratchian, 
 A. F. Izmaylov, J. Bloino, G. Zheng, J. L. Sonnenberg, M. Hada, 
 M. Ehara, K. Toyota, R. Fukuda, J. Hasegawa, M. Ishida, T. Nakajima, 
 Y. Honda, O. Kitao, H. Nakai, T. Vreven, J. A. Montgomery, Jr., 
 J. E. Peralta, F. Ogliaro, M. Bearpark, J. J. Heyd, E. Brothers, 
 K. N. Kudin, V. N. Staroverov, T. Keith, R. Kobayashi, J. Normand, 
 K. Raghavachari, A. Rendell, J. C. Burant, S. S. Iyengar, J. Tomasi, 
 M. Cossi, N. Rega, J. M. Millam, M. Klene, J. E. Knox, J. B. Cross, 
 V. Bakken, C. Adamo, J. Jaramillo, R. Gomperts, R. E. Stratmann, 
 O. Yazyev, A. J. Austin, R. Cammi, C. Pomelli, J. W. Ochterski, 
 R. L. Martin, K. Morokuma, V. G. Zakrzewski, G. A. Voth, 
 P. Salvador, J. J. Dannenberg, S. Dapprich, A. D. Daniels, 
 O. Farkas, J. B. Foresman, J. V. Ortiz, J. Cioslowski, 
 and D. J. Fox, Gaussian, Inc., Wallingford CT, 2013.
 
 ******************************************
 Gaussian 09:  EM64L-G09RevD.01 24-Apr-2013
                16-May-2019 
 ******************************************
 -------------------------------------------------
 # B2PLYP/def2tzvpp nosym scf(tight) force Pop=NPA
 -------------------------------------------------
 1/10=7,30=1,38=1/1,3;
 2/12=2,15=1,17=6,18=5,40=1/2;
 3/5=44,7=202,11=9,16=1,25=1,30=1,71=1,74=-47/1,2,3;
 4//1;
 5/5=2,32=2,38=5/2;
 8/6=4,10=1/1;
 9/15=2,16=-3/6;
 10/5=1,31=1/2;
 6/7=2,8=2,9=2,10=2,18=1,40=-1/1,7;
 7/12=2,29=1,30=1/1,2,3,16;
 1/10=7,30=1/3;
 99//99;
 -----
 xPert
 -----
 Symbolic Z-matrix:
 Charge =  0 Multiplicity = 1
 H                     0.        0.75857  -0.4694 
 H                     0.       -0.75857  -0.4594 
 O                     0.        0.        0.11735 
 

 GradGradGradGradGradGradGradGradGradGradGradGradGradGradGradGradGradGrad
 Berny optimization.
 Initialization pass.
 Trust Radius=3.00D-01 FncErr=1.00D-07 GrdErr=1.00D-07
 Number of steps in this run=      2 maximum allowed number of steps=      2.
 GradGradGradGradGradGradGradGradGradGradGradGradGradGradGradGradGradGrad

                          Input orientation:                          
 ---------------------------------------------------------------------
 Center     Atomic      Atomic             Coordinates (Angstroms)
 Number     Number       Type             X           Y           Z
 ---------------------------------------------------------------------
      1          1           0        0.000000    0.758568   -0.469403
      2          1           0        0.000000   -0.758568   -0.459403
      3          8           0        0.000000    0.000000    0.117351
 ---------------------------------------------------------------------
                    Distance matrix (angstroms):
                    1          2          3
     1  H    0.000000
     2  H    1.517169   0.000000
     3  O    0.959013   0.952927   0.000000
 Symmetry turned off by external request.
 Stoichiometry    H2O
 Framework group  CS[SG(H2O)]
 Deg. of freedom     3
 Full point group                 CS      NOp   2
 Rotational constants (GHZ):    834.2730213    435.6859206    286.2147723
 Standard basis: def2TZVPP (5D, 7F)
    59 basis functions,    85 primitive gaussians,    66 cartesian basis functions
     5 alpha electrons        5 beta electrons
       nuclear repulsion energy         9.2056814113 Hartrees.
 NAtoms=    3 NActive=    3 NUniq=    3 SFac= 1.00D+00 NAtFMM=   60 NAOKFM=F Big=F
 Integral buffers will be    131072 words long.
 Regular integral format.
 Two-electron integral symmetry is turned off.
 One-electron integrals computed using PRISM.
   1 Symmetry operations used in ECPInt.
 ECPInt:  NShTT=     276 NPrTT=     694 LenC2=     277 LenP2D=     681.
 LDataN:  DoStor=T MaxTD1= 6 Len=  172
 NBasis=    59 RedAO= T EigKep=  2.22D-03  NBF=    59
 NBsUse=    59 1.00D-06 EigRej= -1.00D+00 NBFU=    59
 ExpMin= 1.03D-01 ExpMax= 2.70D+04 ExpMxC= 9.22D+02 IAcc=1 IRadAn=         1 AccDes= 0.00D+00
 Harris functional with IExCor=  419 and IRadAn=       1 diagonalized for initial guess.
 HarFok:  IExCor=  419 AccDes= 0.00D+00 IRadAn=         1 IDoV= 1 UseB2=F ITyADJ=14
 ICtDFT=  3500011 ScaDFX=  1.000000  1.000000  1.000000  1.000000
 FoFCou: FMM=F IPFlag=           0 FMFlag=      100000 FMFlg1=           0
         NFxFlg=           0 DoJE=T BraDBF=F KetDBF=T FulRan=T
         wScrn=  0.000000 ICntrl=     500 IOpCl=  0 I1Cent=   200000004 NGrid=           0
         NMat0=    1 NMatS0=      1 NMatT0=    0 NMatD0=    1 NMtDS0=    0 NMtDT0=    0
 Symmetry not used in FoFCou.
 Keep R1 ints in memory in canonical form, NReq=3557649.
 Requested convergence on RMS density matrix=1.00D-08 within 128 cycles.
 Requested convergence on MAX density matrix=1.00D-06.
 Requested convergence on             energy=1.00D-06.
 No special actions if energy rises.
 Integral accuracy reduced to 1.0D-05 until final iterations.
 Initial convergence to 1.0D-05 achieved.  Increase integral accuracy.
 SCF Done:  E(RB2PLYP) =  -76.3298358489     A.U. after   10 cycles
            NFock= 10  Conv=0.35D-08     -V/T= 2.0024
 DoSCS=T DFT=T ScalE2(SS,OS)=  0.270000  0.270000
 ExpMin= 1.03D-01 ExpMax= 2.70D+04 ExpMxC= 9.22D+02 IAcc=3 IRadAn=         5 AccDes= 0.00D+00
 HarFok:  IExCor=  205 AccDes= 0.00D+00 IRadAn=         5 IDoV=-2 UseB2=F ITyADJ=14
 ICtDFT= 12500011 ScaDFX=  1.000000  1.000000  1.000000  1.000000
 Range of M.O.s used for correlation:     2    59
 NBasis=    59 NAE=     5 NBE=     5 NFC=     1 NFV=     0
 NROrb=     58 NOA=     4 NOB=     4 NVA=    54 NVB=    54
 DoSCS=T DFT=T ScalE2(SS,OS)=  0.270000  0.270000
 Fully direct method using O(ONN) memory.
 JobTyp=1 Pass  1:  I=   2 to   5 NPSUse=  1 ParTrn=F ParDer=F DoDerP=T.
 Spin components of T(2) and E(2):
     alpha-alpha T2 =       0.1157860080D-01 E2=     -0.1020733942D-01
     alpha-beta  T2 =       0.6718305822D-01 E2=     -0.6300324943D-01
     beta-beta   T2 =       0.1157860080D-01 E2=     -0.1020733942D-01
 E2(B2PLYP) =    -0.8341792828D-01 E(B2PLYP) =    -0.76413253777158D+02
          IDoAtm=111
          Differentiating once with respect to electric field.
                with respect to dipole field.
          Differentiating once with respect to nuclear coordinates.
 Keep R1 ints in memory in canonical form, NReq=3533351.
          There are     1 degrees of freedom in the 1st order CPHF.  IDoFFX=0 NUNeed=     1.
 LinEq1:  Iter=  0 NonCon=     1 RMS=1.88D-03 Max=1.53D-02 NDo=     1
 AX will form     1 AO Fock derivatives at one time.
 LinEq1:  Iter=  1 NonCon=     1 RMS=1.99D-04 Max=1.58D-03 NDo=     1
 LinEq1:  Iter=  2 NonCon=     1 RMS=5.37D-05 Max=4.44D-04 NDo=     1
 LinEq1:  Iter=  3 NonCon=     1 RMS=2.39D-05 Max=1.29D-04 NDo=     1
 LinEq1:  Iter=  4 NonCon=     1 RMS=5.71D-06 Max=3.44D-05 NDo=     1
 LinEq1:  Iter=  5 NonCon=     1 RMS=3.66D-07 Max=3.11D-06 NDo=     1
 LinEq1:  Iter=  6 NonCon=     1 RMS=5.35D-08 Max=4.88D-07 NDo=     1
 LinEq1:  Iter=  7 NonCon=     1 RMS=6.00D-09 Max=3.45D-08 NDo=     1
 LinEq1:  Iter=  8 NonCon=     1 RMS=1.37D-09 Max=9.70D-09 NDo=     1
 LinEq1:  Iter=  9 NonCon=     0 RMS=8.44D-11 Max=7.42D-10 NDo=     1
 Linear equations converged to 1.000D-10 1.000D-09 after     9 iterations.
 End of Minotr F.D. properties file   721 does not exist.
 End of Minotr F.D. properties file   722 does not exist.
 End of Minotr F.D. properties file   788 does not exist.

 **********************************************************************

            Population analysis using the SCF density.

 **********************************************************************

 Alpha  occ. eigenvalues --  -19.72481  -1.15415  -0.61131  -0.47033  -0.39628
 Alpha virt. eigenvalues --    0.06072   0.13579   0.42710   0.46095   0.48871
 Alpha virt. eigenvalues --    0.49402   0.60779   0.62565   0.72072   0.74915
 Alpha virt. eigenvalues --    0.84511   1.07899   1.24596   1.31008   1.79833
 Alpha virt. eigenvalues --    1.86038   1.90002   1.91100   1.98742   2.22294
 Alpha virt. eigenvalues --    2.50995   2.70836   2.86390   3.18323   3.28518
 Alpha virt. eigenvalues --    3.38991   3.41117   3.43979   3.50506   3.66962
 Alpha virt. eigenvalues --    3.70134   3.76796   3.77153   4.12773   4.23139
 Alpha virt. eigenvalues --    4.23195   4.28315   4.74838   4.78645   4.92925
 Alpha virt. eigenvalues --    5.10992   5.78178   6.31425   6.60624   6.63044
 Alpha virt. eigenvalues --    6.71095   6.75125   6.78263   6.96382   7.08109
 Alpha virt. eigenvalues --    7.57660   7.59874   7.83121  44.16304
          Condensed to atoms (all electrons):
               1          2          3
     1  H    0.476751  -0.028613   0.338831
     2  H   -0.028613   0.478247   0.340501
     3  O    0.338831   0.340501   7.743563
 Mulliken charges:
               1
     1  H    0.213031
     2  H    0.209864
     3  O   -0.422895
 Sum of Mulliken charges =   0.00000
 Mulliken charges with hydrogens summed into heavy atoms:
               1
     3  O    0.000000
 Electronic spatial extent (au):  <R**2>=             19.4311
 Charge=              0.0000 electrons
 Dipole moment (field-independent basis, Debye):
    X=              0.0000    Y=             -0.0036    Z=             -1.9870  Tot=              1.9870
 Quadrupole moment (field-independent basis, Debye-Ang):
   XX=             -7.4638   YY=             -4.2885   ZZ=             -6.2541
   XY=              0.0000   XZ=              0.0000   YZ=             -0.0162
 Traceless Quadrupole moment (field-independent basis, Debye-Ang):
   XX=             -1.4617   YY=              1.7137   ZZ=             -0.2520
   XY=              0.0000   XZ=              0.0000   YZ=             -0.0162
 Octapole moment (field-independent basis, Debye-Ang**2):
  XXX=              0.0000  YYY=             -0.0101  ZZZ=             -1.2099  XYY=              0.0000
  XXY=             -0.0038  XXZ=             -0.3108  XZZ=              0.0000  YZZ=              0.0103
  YYZ=             -1.3337  XYZ=              0.0000
 Hexadecapole moment (field-independent basis, Debye-Ang**3):
 XXXX=             -6.2003 YYYY=             -6.0597 ZZZZ=             -6.9957 XXXY=              0.0000
 XXXZ=              0.0000 YYYX=              0.0000 YYYZ=              0.0020 ZZZX=              0.0000
 ZZZY=              0.0008 XXYY=             -2.3578 XXZZ=             -2.2518 YYZZ=             -1.8496
 XXYZ=              0.0045 YYXZ=              0.0000 ZZXY=              0.0000
 N-N= 9.205681411291D+00 E-N=-1.992876679479D+02  KE= 7.614696690758D+01
 ******************************Gaussian NBO Version 3.1******************************
             N A T U R A L   A T O M I C   O R B I T A L   A N D
          N A T U R A L   B O N D   O R B I T A L   A N A L Y S I S
 ******************************Gaussian NBO Version 3.1******************************
       /RESON  / : Allow strongly delocalized NBO set

 Analyzing the SCF density

 Job title: xPert                                                           

 Storage needed:     10799 in NPA ( 536870849 available)


 NATURAL POPULATIONS:  Natural atomic orbital occupancies 
                                                          
   NAO  Atom  No  lang   Type(AO)    Occupancy      Energy
 ----------------------------------------------------------
     1    H    1  S      Val( 1S)     0.53623       0.16775
     2    H    1  S      Ryd( 2S)     0.00142       0.81484
     3    H    1  S      Ryd( 3S)     0.00010       1.71953
     4    H    1  px     Ryd( 2p)     0.00203       1.68388
     5    H    1  px     Ryd( 3p)     0.00000       3.48306
     6    H    1  py     Ryd( 2p)     0.00029       2.40873
     7    H    1  py     Ryd( 3p)     0.00062       3.76546
     8    H    1  pz     Ryd( 2p)     0.00131       2.08829
     9    H    1  pz     Ryd( 3p)     0.00056       3.66731
    10    H    1  dxy    Ryd( 3d)     0.00001       3.84750
    11    H    1  dxz    Ryd( 3d)     0.00001       3.67818
    12    H    1  dyz    Ryd( 3d)     0.00002       4.17690
    13    H    1  dx2y2  Ryd( 3d)     0.00010       3.93933
    14    H    1  dz2    Ryd( 3d)     0.00002       3.91115

    15    H    2  S      Val( 1S)     0.53663       0.17587
    16    H    2  S      Ryd( 2S)     0.00142       0.82206
    17    H    2  S      Ryd( 3S)     0.00010       1.70375
    18    H    2  px     Ryd( 2p)     0.00204       1.70024
    19    H    2  px     Ryd( 3p)     0.00000       3.48367
    20    H    2  py     Ryd( 2p)     0.00028       2.42799
    21    H    2  py     Ryd( 3p)     0.00065       3.76366
    22    H    2  pz     Ryd( 2p)     0.00132       2.09362
    23    H    2  pz     Ryd( 3p)     0.00056       3.66419
    24    H    2  dxy    Ryd( 3d)     0.00001       3.85696
    25    H    2  dxz    Ryd( 3d)     0.00001       3.67675
    26    H    2  dyz    Ryd( 3d)     0.00003       4.18505
    27    H    2  dx2y2  Ryd( 3d)     0.00011       3.95060
    28    H    2  dz2    Ryd( 3d)     0.00002       3.90934

    29    O    3  S      Cor( 1S)     1.99986     -19.50330
    30    O    3  S      Val( 2S)     1.74158      -1.06178
    31    O    3  S      Ryd( 3S)     0.00054       2.23042
    32    O    3  S      Ryd( 4S)     0.00000       3.81439
    33    O    3  S      Ryd( 5S)     0.00000      42.14042
    34    O    3  px     Val( 2p)     1.99192      -0.39026
    35    O    3  px     Ryd( 3p)     0.00127       0.60942
    36    O    3  px     Ryd( 4p)     0.00000       2.68092
    37    O    3  py     Val( 2p)     1.45219      -0.30012
    38    O    3  py     Ryd( 3p)     0.00293       0.69375
    39    O    3  py     Ryd( 4p)     0.00001       3.34838
    40    O    3  pz     Val( 2p)     1.71497      -0.34871
    41    O    3  pz     Ryd( 3p)     0.00033       0.65448
    42    O    3  pz     Ryd( 4p)     0.00015       3.04855
    43    O    3  dxy    Ryd( 3d)     0.00000       2.33876
    44    O    3  dxy    Ryd( 4d)     0.00000       6.51131
    45    O    3  dxz    Ryd( 3d)     0.00245       2.18107
    46    O    3  dxz    Ryd( 4d)     0.00003       6.48836
    47    O    3  dyz    Ryd( 3d)     0.00184       3.51316
    48    O    3  dyz    Ryd( 4d)     0.00018       7.06212
    49    O    3  dx2y2  Ryd( 3d)     0.00088       2.74191
    50    O    3  dx2y2  Ryd( 4d)     0.00001       6.69211
    51    O    3  dz2    Ryd( 3d)     0.00255       2.47507
    52    O    3  dz2    Ryd( 4d)     0.00003       6.59606
    53    O    3  f(0)   Ryd( 4f)     0.00002       5.93103
    54    O    3  f(C1)  Ryd( 4f)     0.00002       5.57344
    55    O    3  f(S1)  Ryd( 4f)     0.00003       6.40689
    56    O    3  f(C2)  Ryd( 4f)     0.00008       6.31346
    57    O    3  f(S2)  Ryd( 4f)     0.00000       6.05084
    58    O    3  f(C3)  Ryd( 4f)     0.00020       5.87162
    59    O    3  f(S3)  Ryd( 4f)     0.00004       5.89179

 WARNING:  Population inversion found on atom  H    1
           Population inversion found on atom  H    2


 Summary of Natural Population Analysis:                  
                                                          
                                       Natural Population 
                Natural  -----------------------------------------------
    Atom  No    Charge         Core      Valence    Rydberg      Total
 -----------------------------------------------------------------------
      H    1    0.45728      0.00000     0.53623    0.00650     0.54272
      H    2    0.45682      0.00000     0.53663    0.00655     0.54318
      O    3   -0.91410      1.99986     6.90067    0.01358     8.91410
 =======================================================================
   * Total *    0.00000      1.99986     7.97352    0.02662    10.00000

                                 Natural Population      
 --------------------------------------------------------
   Core                       1.99986 ( 99.9928% of   2)
   Valence                    7.97352 ( 99.6691% of   8)
   Natural Minimal Basis      9.97338 ( 99.7338% of  10)
   Natural Rydberg Basis      0.02662 (  0.2662% of  10)
 --------------------------------------------------------

    Atom  No          Natural Electron Configuration
 ----------------------------------------------------------------------------
      H    1            1S( 0.54)
      H    2            1S( 0.54)
      O    3      [core]2S( 1.74)2p( 5.16)3d( 0.01)


 NBO analysis skipped by request.
   1 Symmetry operations used in ECPInt.
 ECPInt:  NShTT=     276 NPrTT=     694 LenC2=     277 LenP2D=     681.
 LDataN:  DoStor=T MaxTD1= 7 Len=  274
 Calling FoFJK, ICntrl=  10002127 FMM=F ISym2X=0 I1Cent= 0 IOpClX= 0 NMat=1 NMatS=1 NMatT=0.
 -------------------------------------------------------------------
 Center     Atomic                   Forces (Hartrees/Bohr)
 Number     Number              X              Y              Z
 -------------------------------------------------------------------
      1        1           0.000000000   -0.000592564   -0.000209064
      2        1           0.000000000   -0.004549801   -0.004126968
      3        8           0.000000000    0.005142365    0.004336032
 -------------------------------------------------------------------
 Cartesian Forces:  Max     0.005142365 RMS     0.003043618

 GradGradGradGradGradGradGradGradGradGradGradGradGradGradGradGradGradGrad
 Berny optimization.
 Search for a local minimum.
 Step number   1 out of a maximum of    2
 All quantities printed in internal units (Hartrees-Bohrs-Radians)
 Second derivative matrix not updated -- first step.
 The second derivative matrix:
                          X1        Y1        Z1        X2        Y2
           X1           1.00000
           Y1           0.00000   0.36664
           Z1           0.00000  -0.24592   0.23893
           X2           0.00000   0.00000   0.00000   1.00000
           Y2           0.00000  -0.01816  -0.02347   0.00000   0.37942
           Z2           0.00000   0.02388   0.03087   0.00000   0.25096
           X3           0.00000   0.00000   0.00000   0.00000   0.00000
           Y3           0.00000  -0.34849   0.26939   0.00000  -0.36126
           Z3           0.00000   0.22204  -0.26980   0.00000  -0.22749
                          Z2        X3        Y3        Z3
           Z2           0.24015
           X3           0.00000   1.00000
           Y3          -0.27484   0.00000   0.70975
           Z3          -0.27102   0.00000   0.00545   0.54083
 ITU=  0
     Eigenvalues ---    0.14735   0.87350   1.01781
 Angle between quadratic step and forces=  30.78 degrees.
 Linear search not attempted -- first point.
 TrRot=  0.000000  0.001348  0.001855  0.000000  0.000000  0.000000
 Variable       Old X    -DE/DX   Delta X   Delta X   Delta X     New X
                                 (Linear)    (Quad)   (Total)
    X1        0.00000   0.00000   0.00000   0.00000   0.00000   0.00000
    Y1        1.43349  -0.00059   0.00000  -0.00239  -0.00104   1.43244
    Z1       -0.88704  -0.00021   0.00000  -0.00191  -0.00005  -0.88710
    X2        0.00000   0.00000   0.00000   0.00000   0.00000   0.00000
    Y2       -1.43349  -0.00455   0.00000  -0.00386  -0.00252  -1.43600
    Z2       -0.86815  -0.00413   0.00000  -0.00670  -0.00484  -0.87299
    X3        0.00000   0.00000   0.00000   0.00000   0.00000   0.00000
    Y3        0.00000   0.00514   0.00000   0.00221   0.00356   0.00356
    Z3        0.22176   0.00434   0.00000   0.00304   0.00490   0.22666
         Item               Value     Threshold  Converged?
 Maximum Force            0.005142     0.000450     NO 
 RMS     Force            0.003044     0.000300     NO 
 Maximum Displacement     0.004898     0.001800     NO 
 RMS     Displacement     0.002739     0.001200     NO 
 Predicted change in Energy=-3.580327D-05
 GradGradGradGradGradGradGradGradGradGradGradGradGradGradGradGradGradGrad

 1\1\GINC-CCWSGE0163\Force\RB2PLYP-FC\def2TZVPP\H2O1\ALLOUCHE\16-May-20
 19\0\\# B2PLYP/def2tzvpp nosym scf(tight) force Pop=NPA\\xPert\\0,1\H,
 0.,0.758568,-0.469403\H,0.,-0.758568,-0.459403\O,0.,0.,0.117351\\Versi
 on=EM64L-G09RevD.01\HF=-76.3298358\MP2=-76.4132538\RMSD=3.479e-09\RMSF
 =3.044e-03\Dipole=0.,-0.0014457,-0.7636137\PG=CS [SG(H2O1)]\\@


 A MAN IS EXACTLY AS GREAT AS THE TIDE SURGING
 BENEATH HIM.      - BISMARCK
 Job cpu time:       0 days  0 hours  0 minutes 17.0 seconds.
 File lengths (MBytes):  RWF=      5 Int=      0 D2E=      0 Chk=      1 Scr=      1
 Normal termination of Gaussian 09 at Thu May 16 09:04:19 2019.
