 Entering Gaussian System, Link 0=/pbs/throng/ilm/sl6/allouche/Gaussian09D/g09/g09
 Initial command:
 /pbs/throng/ilm/sl6/allouche/Gaussian09D/g09/l1.exe "/scratch/6331996.1.long/Gau-289217.inp" -scrdir="/scratch/6331996.1.long/"
 Entering Link 1 = /pbs/throng/ilm/sl6/allouche/Gaussian09D/g09/l1.exe PID=    289218.
  
 Copyright (c) 1988,1990,1992,1993,1995,1998,2003,2009,2013,
            Gaussian, Inc.  All Rights Reserved.
  
 This is part of the Gaussian(R) 09 program.  It is based on
 the Gaussian(R) 03 system (copyright 2003, Gaussian, Inc.),
 the Gaussian(R) 98 system (copyright 1998, Gaussian, Inc.),
 the Gaussian(R) 94 system (copyright 1995, Gaussian, Inc.),
 the Gaussian 92(TM) system (copyright 1992, Gaussian, Inc.),
 the Gaussian 90(TM) system (copyright 1990, Gaussian, Inc.),
 the Gaussian 88(TM) system (copyright 1988, Gaussian, Inc.),
 the Gaussian 86(TM) system (copyright 1986, Carnegie Mellon
 University), and the Gaussian 82(TM) system (copyright 1983,
 Carnegie Mellon University). Gaussian is a federally registered
 trademark of Gaussian, Inc.
  
 This software contains proprietary and confidential information,
 including trade secrets, belonging to Gaussian, Inc.
  
 This software is provided under written license and may be
 used, copied, transmitted, or stored only in accord with that
 written license.
  
 The following legend is applicable only to US Government
 contracts under FAR:
  
                    RESTRICTED RIGHTS LEGEND
  
 Use, reproduction and disclosure by the US Government is
 subject to restrictions as set forth in subparagraphs (a)
 and (c) of the Commercial Computer Software - Restricted
 Rights clause in FAR 52.227-19.
  
 Gaussian, Inc.
 340 Quinnipiac St., Bldg. 40, Wallingford CT 06492
  
  
 ---------------------------------------------------------------
 Warning -- This program may not be used in any manner that
 competes with the business of Gaussian, Inc. or will provide
 assistance to any competitor of Gaussian, Inc.  The licensee
 of this program is prohibited from giving any competitor of
 Gaussian, Inc. access to this program.  By using this program,
 the user acknowledges that Gaussian, Inc. is engaged in the
 business of creating and licensing software in the field of
 computational chemistry and represents and warrants to the
 licensee that it is not a competitor of Gaussian, Inc. and that
 it will not use this program in any manner prohibited above.
 ---------------------------------------------------------------
  

 Cite this work as:
 Gaussian 09, Revision D.01,
 M. J. Frisch, G. W. Trucks, H. B. Schlegel, G. E. Scuseria, 
 M. A. Robb, J. R. Cheeseman, G. Scalmani, V. Barone, B. Mennucci, 
 G. A. Petersson, H. Nakatsuji, M. Caricato, X. Li, H. P. Hratchian, 
 A. F. Izmaylov, J. Bloino, G. Zheng, J. L. Sonnenberg, M. Hada, 
 M. Ehara, K. Toyota, R. Fukuda, J. Hasegawa, M. Ishida, T. Nakajima, 
 Y. Honda, O. Kitao, H. Nakai, T. Vreven, J. A. Montgomery, Jr., 
 J. E. Peralta, F. Ogliaro, M. Bearpark, J. J. Heyd, E. Brothers, 
 K. N. Kudin, V. N. Staroverov, T. Keith, R. Kobayashi, J. Normand, 
 K. Raghavachari, A. Rendell, J. C. Burant, S. S. Iyengar, J. Tomasi, 
 M. Cossi, N. Rega, J. M. Millam, M. Klene, J. E. Knox, J. B. Cross, 
 V. Bakken, C. Adamo, J. Jaramillo, R. Gomperts, R. E. Stratmann, 
 O. Yazyev, A. J. Austin, R. Cammi, C. Pomelli, J. W. Ochterski, 
 R. L. Martin, K. Morokuma, V. G. Zakrzewski, G. A. Voth, 
 P. Salvador, J. J. Dannenberg, S. Dapprich, A. D. Daniels, 
 O. Farkas, J. B. Foresman, J. V. Ortiz, J. Cioslowski, 
 and D. J. Fox, Gaussian, Inc., Wallingford CT, 2013.
 
 ******************************************
 Gaussian 09:  EM64L-G09RevD.01 24-Apr-2013
                16-May-2019 
 ******************************************
 -------------------------------------------------
 # B2PLYP/def2tzvpp nosym scf(tight) force Pop=NPA
 -------------------------------------------------
 1/10=7,30=1,38=1/1,3;
 2/12=2,15=1,17=6,18=5,40=1/2;
 3/5=44,7=202,11=9,16=1,25=1,30=1,71=1,74=-47/1,2,3;
 4//1;
 5/5=2,32=2,38=5/2;
 8/6=4,10=1/1;
 9/15=2,16=-3/6;
 10/5=1,31=1/2;
 6/7=2,8=2,9=2,10=2,18=1,40=-1/1,7;
 7/12=2,29=1,30=1/1,2,3,16;
 1/10=7,30=1/3;
 99//99;
 -----
 xPert
 -----
 Symbolic Z-matrix:
 Charge =  0 Multiplicity = 1
 H                     0.        0.75857  -0.4694 
 H                     0.       -0.75857  -0.4694 
 O                     0.        0.        0.12735 
 

 GradGradGradGradGradGradGradGradGradGradGradGradGradGradGradGradGradGrad
 Berny optimization.
 Initialization pass.
 Trust Radius=3.00D-01 FncErr=1.00D-07 GrdErr=1.00D-07
 Number of steps in this run=      2 maximum allowed number of steps=      2.
 GradGradGradGradGradGradGradGradGradGradGradGradGradGradGradGradGradGrad

                          Input orientation:                          
 ---------------------------------------------------------------------
 Center     Atomic      Atomic             Coordinates (Angstroms)
 Number     Number       Type             X           Y           Z
 ---------------------------------------------------------------------
      1          1           0        0.000000    0.758568   -0.469403
      2          1           0        0.000000   -0.758568   -0.469403
      3          8           0        0.000000    0.000000    0.127351
 ---------------------------------------------------------------------
                    Distance matrix (angstroms):
                    1          2          3
     1  H    0.000000
     2  H    1.517136   0.000000
     3  O    0.965164   0.965164   0.000000
 Symmetry turned off by external request.
 Stoichiometry    H2O
 Framework group  C2V[C2(O),SGV(H2)]
 Deg. of freedom     2
 Full point group                 C2V     NOp   4
 Rotational constants (GHZ):    792.7874803    435.7255441    281.1836337
 Standard basis: def2TZVPP (5D, 7F)
    59 basis functions,    85 primitive gaussians,    66 cartesian basis functions
     5 alpha electrons        5 beta electrons
       nuclear repulsion energy         9.1212356495 Hartrees.
 NAtoms=    3 NActive=    3 NUniq=    3 SFac= 1.00D+00 NAtFMM=   60 NAOKFM=F Big=F
 Integral buffers will be    131072 words long.
 Regular integral format.
 Two-electron integral symmetry is turned off.
 One-electron integrals computed using PRISM.
   1 Symmetry operations used in ECPInt.
 ECPInt:  NShTT=     276 NPrTT=     694 LenC2=     277 LenP2D=     681.
 LDataN:  DoStor=T MaxTD1= 6 Len=  172
 NBasis=    59 RedAO= T EigKep=  2.32D-03  NBF=    59
 NBsUse=    59 1.00D-06 EigRej= -1.00D+00 NBFU=    59
 ExpMin= 1.03D-01 ExpMax= 2.70D+04 ExpMxC= 9.22D+02 IAcc=1 IRadAn=         1 AccDes= 0.00D+00
 Harris functional with IExCor=  419 and IRadAn=       1 diagonalized for initial guess.
 HarFok:  IExCor=  419 AccDes= 0.00D+00 IRadAn=         1 IDoV= 1 UseB2=F ITyADJ=14
 ICtDFT=  3500011 ScaDFX=  1.000000  1.000000  1.000000  1.000000
 FoFCou: FMM=F IPFlag=           0 FMFlag=      100000 FMFlg1=           0
         NFxFlg=           0 DoJE=T BraDBF=F KetDBF=T FulRan=T
         wScrn=  0.000000 ICntrl=     500 IOpCl=  0 I1Cent=   200000004 NGrid=           0
         NMat0=    1 NMatS0=      1 NMatT0=    0 NMatD0=    1 NMtDS0=    0 NMtDT0=    0
 Symmetry not used in FoFCou.
 Keep R1 ints in memory in canonical form, NReq=3557621.
 Requested convergence on RMS density matrix=1.00D-08 within 128 cycles.
 Requested convergence on MAX density matrix=1.00D-06.
 Requested convergence on             energy=1.00D-06.
 No special actions if energy rises.
 Integral accuracy reduced to 1.0D-05 until final iterations.
 Initial convergence to 1.0D-05 achieved.  Increase integral accuracy.
 SCF Done:  E(RB2PLYP) =  -76.3294448478     A.U. after   10 cycles
            NFock= 10  Conv=0.35D-08     -V/T= 2.0028
 DoSCS=T DFT=T ScalE2(SS,OS)=  0.270000  0.270000
 ExpMin= 1.03D-01 ExpMax= 2.70D+04 ExpMxC= 9.22D+02 IAcc=3 IRadAn=         5 AccDes= 0.00D+00
 HarFok:  IExCor=  205 AccDes= 0.00D+00 IRadAn=         5 IDoV=-2 UseB2=F ITyADJ=14
 ICtDFT= 12500011 ScaDFX=  1.000000  1.000000  1.000000  1.000000
 Range of M.O.s used for correlation:     2    59
 NBasis=    59 NAE=     5 NBE=     5 NFC=     1 NFV=     0
 NROrb=     58 NOA=     4 NOB=     4 NVA=    54 NVB=    54
 DoSCS=T DFT=T ScalE2(SS,OS)=  0.270000  0.270000
 Fully direct method using O(ONN) memory.
 JobTyp=1 Pass  1:  I=   2 to   5 NPSUse=  1 ParTrn=F ParDer=F DoDerP=T.
 Spin components of T(2) and E(2):
     alpha-alpha T2 =       0.1172380645D-01 E2=     -0.1024739897D-01
     alpha-beta  T2 =       0.6816113132D-01 E2=     -0.6327151117D-01
     beta-beta   T2 =       0.1172380645D-01 E2=     -0.1024739897D-01
 E2(B2PLYP) =    -0.8376630911D-01 E(B2PLYP) =    -0.76413211156871D+02
          IDoAtm=111
          Differentiating once with respect to electric field.
                with respect to dipole field.
          Differentiating once with respect to nuclear coordinates.
 Keep R1 ints in memory in canonical form, NReq=3533351.
          There are     1 degrees of freedom in the 1st order CPHF.  IDoFFX=0 NUNeed=     1.
 LinEq1:  Iter=  0 NonCon=     1 RMS=1.92D-03 Max=1.57D-02 NDo=     1
 AX will form     1 AO Fock derivatives at one time.
 LinEq1:  Iter=  1 NonCon=     1 RMS=2.08D-04 Max=1.66D-03 NDo=     1
 LinEq1:  Iter=  2 NonCon=     1 RMS=5.71D-05 Max=4.78D-04 NDo=     1
 LinEq1:  Iter=  3 NonCon=     1 RMS=2.57D-05 Max=1.39D-04 NDo=     1
 LinEq1:  Iter=  4 NonCon=     1 RMS=6.14D-06 Max=3.69D-05 NDo=     1
 LinEq1:  Iter=  5 NonCon=     1 RMS=4.09D-07 Max=3.52D-06 NDo=     1
 LinEq1:  Iter=  6 NonCon=     1 RMS=5.76D-08 Max=5.13D-07 NDo=     1
 LinEq1:  Iter=  7 NonCon=     1 RMS=4.39D-09 Max=3.53D-08 NDo=     1
 LinEq1:  Iter=  8 NonCon=     1 RMS=1.88D-10 Max=1.38D-09 NDo=     1
 LinEq1:  Iter=  9 NonCon=     0 RMS=1.30D-11 Max=9.67D-11 NDo=     1
 Linear equations converged to 1.000D-10 1.000D-09 after     9 iterations.
 End of Minotr F.D. properties file   721 does not exist.
 End of Minotr F.D. properties file   722 does not exist.
 End of Minotr F.D. properties file   788 does not exist.

 **********************************************************************

            Population analysis using the SCF density.

 **********************************************************************

 Alpha  occ. eigenvalues --  -19.72689  -1.15086  -0.60453  -0.47184  -0.39589
 Alpha virt. eigenvalues --    0.05926   0.13466   0.42192   0.46244   0.48677
 Alpha virt. eigenvalues --    0.49430   0.60606   0.62630   0.71110   0.75026
 Alpha virt. eigenvalues --    0.83780   1.07789   1.24437   1.30139   1.81069
 Alpha virt. eigenvalues --    1.86345   1.89335   1.92584   1.99064   2.20879
 Alpha virt. eigenvalues --    2.51171   2.70554   2.86191   3.17088   3.27397
 Alpha virt. eigenvalues --    3.39521   3.40560   3.42229   3.48591   3.66364
 Alpha virt. eigenvalues --    3.70163   3.76706   3.76898   4.10780   4.20743
 Alpha virt. eigenvalues --    4.21393   4.27958   4.72750   4.76433   4.91650
 Alpha virt. eigenvalues --    5.10037   5.77025   6.31395   6.57767   6.61201
 Alpha virt. eigenvalues --    6.69160   6.70838   6.79225   6.94700   7.05223
 Alpha virt. eigenvalues --    7.56156   7.58055   7.78634  44.12876
          Condensed to atoms (all electrons):
               1          2          3
     1  H    0.479502  -0.027584   0.333935
     2  H   -0.027584   0.479502   0.333935
     3  O    0.333935   0.333935   7.760422
 Mulliken charges:
               1
     1  H    0.214146
     2  H    0.214146
     3  O   -0.428293
 Sum of Mulliken charges =   0.00000
 Mulliken charges with hydrogens summed into heavy atoms:
               1
     3  O    0.000000
 Electronic spatial extent (au):  <R**2>=             19.5743
 Charge=              0.0000 electrons
 Dipole moment (field-independent basis, Debye):
    X=              0.0000    Y=              0.0000    Z=             -2.0144  Tot=              2.0144
 Quadrupole moment (field-independent basis, Debye-Ang):
   XX=             -7.4824   YY=             -4.3313   ZZ=             -6.2468
   XY=              0.0000   XZ=              0.0000   YZ=              0.0000
 Traceless Quadrupole moment (field-independent basis, Debye-Ang):
   XX=             -1.4622   YY=              1.6889   ZZ=             -0.2267
   XY=              0.0000   XZ=              0.0000   YZ=              0.0000
 Octapole moment (field-independent basis, Debye-Ang**2):
  XXX=              0.0000  YYY=              0.0000  ZZZ=             -1.3563  XYY=              0.0000
  XXY=              0.0000  XXZ=             -0.3601  XZZ=              0.0000  YZZ=              0.0000
  YYZ=             -1.3835  XYZ=              0.0000
 Hexadecapole moment (field-independent basis, Debye-Ang**3):
 XXXX=             -6.2228 YYYY=             -6.1749 ZZZZ=             -7.1108 XXXY=              0.0000
 XXXZ=              0.0000 YYYX=              0.0000 YYYZ=              0.0000 ZZZX=              0.0000
 ZZZY=              0.0000 XXYY=             -2.3782 XXZZ=             -2.2785 YYZZ=             -1.8711
 XXYZ=              0.0000 YYXZ=              0.0000 ZZXY=              0.0000
 N-N= 9.121235649532D+00 E-N=-1.991032411406D+02  KE= 7.611560080731D+01
 ******************************Gaussian NBO Version 3.1******************************
             N A T U R A L   A T O M I C   O R B I T A L   A N D
          N A T U R A L   B O N D   O R B I T A L   A N A L Y S I S
 ******************************Gaussian NBO Version 3.1******************************
       /RESON  / : Allow strongly delocalized NBO set

 Analyzing the SCF density

 Job title: xPert                                                           

 Storage needed:     10799 in NPA ( 536870849 available)


 NATURAL POPULATIONS:  Natural atomic orbital occupancies 
                                                          
   NAO  Atom  No  lang   Type(AO)    Occupancy      Energy
 ----------------------------------------------------------
     1    H    1  S      Val( 1S)     0.53676       0.16054
     2    H    1  S      Ryd( 2S)     0.00146       0.80370
     3    H    1  S      Ryd( 3S)     0.00009       1.73947
     4    H    1  px     Ryd( 2p)     0.00206       1.65872
     5    H    1  px     Ryd( 3p)     0.00000       3.48982
     6    H    1  py     Ryd( 2p)     0.00031       2.38097
     7    H    1  py     Ryd( 3p)     0.00060       3.77942
     8    H    1  pz     Ryd( 2p)     0.00133       2.07562
     9    H    1  pz     Ryd( 3p)     0.00057       3.67695
    10    H    1  dxy    Ryd( 3d)     0.00002       3.83726
    11    H    1  dxz    Ryd( 3d)     0.00000       3.67944
    12    H    1  dyz    Ryd( 3d)     0.00003       4.16917
    13    H    1  dx2y2  Ryd( 3d)     0.00011       3.93206
    14    H    1  dz2    Ryd( 3d)     0.00002       3.91186

    15    H    2  S      Val( 1S)     0.53676       0.16054
    16    H    2  S      Ryd( 2S)     0.00146       0.80370
    17    H    2  S      Ryd( 3S)     0.00009       1.73947
    18    H    2  px     Ryd( 2p)     0.00206       1.65872
    19    H    2  px     Ryd( 3p)     0.00000       3.48982
    20    H    2  py     Ryd( 2p)     0.00031       2.38097
    21    H    2  py     Ryd( 3p)     0.00060       3.77942
    22    H    2  pz     Ryd( 2p)     0.00133       2.07562
    23    H    2  pz     Ryd( 3p)     0.00057       3.67695
    24    H    2  dxy    Ryd( 3d)     0.00002       3.83726
    25    H    2  dxz    Ryd( 3d)     0.00000       3.67944
    26    H    2  dyz    Ryd( 3d)     0.00003       4.16917
    27    H    2  dx2y2  Ryd( 3d)     0.00011       3.93206
    28    H    2  dz2    Ryd( 3d)     0.00002       3.91186

    29    O    3  S      Cor( 1S)     1.99986     -19.50809
    30    O    3  S      Val( 2S)     1.74992      -1.06594
    31    O    3  S      Ryd( 3S)     0.00055       2.19546
    32    O    3  S      Ryd( 5S)     0.00000      43.17571
    33    O    3  S      Ryd( 4S)     0.00000       2.77312
    34    O    3  px     Val( 2p)     1.99194      -0.38992
    35    O    3  px     Ryd( 3p)     0.00120       0.60413
    36    O    3  px     Ryd( 4p)     0.00000       2.68820
    37    O    3  py     Val( 2p)     1.45306      -0.30099
    38    O    3  py     Ryd( 3p)     0.00274       0.68346
    39    O    3  py     Ryd( 4p)     0.00001       3.33068
    40    O    3  pz     Val( 2p)     1.70518      -0.34728
    41    O    3  pz     Ryd( 3p)     0.00029       0.64958
    42    O    3  pz     Ryd( 4p)     0.00016       3.05669
    43    O    3  dxy    Ryd( 3d)     0.00000       2.31299
    44    O    3  dxy    Ryd( 4d)     0.00000       6.50929
    45    O    3  dxz    Ryd( 3d)     0.00245       2.17711
    46    O    3  dxz    Ryd( 4d)     0.00003       6.49246
    47    O    3  dyz    Ryd( 3d)     0.00189       3.46772
    48    O    3  dyz    Ryd( 4d)     0.00017       7.06083
    49    O    3  dx2y2  Ryd( 3d)     0.00086       2.68727
    50    O    3  dx2y2  Ryd( 4d)     0.00001       6.68291
    51    O    3  dz2    Ryd( 3d)     0.00256       2.46891
    52    O    3  dz2    Ryd( 4d)     0.00003       6.60096
    53    O    3  f(0)   Ryd( 4f)     0.00002       5.92442
    54    O    3  f(C1)  Ryd( 4f)     0.00003       5.57411
    55    O    3  f(S1)  Ryd( 4f)     0.00002       6.39466
    56    O    3  f(C2)  Ryd( 4f)     0.00007       6.29104
    57    O    3  f(S2)  Ryd( 4f)     0.00000       6.04326
    58    O    3  f(C3)  Ryd( 4f)     0.00018       5.84587
    59    O    3  f(S3)  Ryd( 4f)     0.00004       5.86291

 WARNING:  Population inversion found on atom  H    1
           Population inversion found on atom  H    2
           Population inversion found on atom  O    3


 Summary of Natural Population Analysis:                  
                                                          
                                       Natural Population 
                Natural  -----------------------------------------------
    Atom  No    Charge         Core      Valence    Rydberg      Total
 -----------------------------------------------------------------------
      H    1    0.45665      0.00000     0.53676    0.00660     0.54335
      H    2    0.45665      0.00000     0.53676    0.00660     0.54335
      O    3   -0.91330      1.99986     6.90010    0.01334     8.91330
 =======================================================================
   * Total *    0.00000      1.99986     7.97361    0.02653    10.00000

                                 Natural Population      
 --------------------------------------------------------
   Core                       1.99986 ( 99.9931% of   2)
   Valence                    7.97361 ( 99.6701% of   8)
   Natural Minimal Basis      9.97347 ( 99.7347% of  10)
   Natural Rydberg Basis      0.02653 (  0.2653% of  10)
 --------------------------------------------------------

    Atom  No          Natural Electron Configuration
 ----------------------------------------------------------------------------
      H    1            1S( 0.54)
      H    2            1S( 0.54)
      O    3      [core]2S( 1.75)2p( 5.15)3d( 0.01)


 NBO analysis skipped by request.
   1 Symmetry operations used in ECPInt.
 ECPInt:  NShTT=     276 NPrTT=     694 LenC2=     277 LenP2D=     681.
 LDataN:  DoStor=T MaxTD1= 7 Len=  274
 Calling FoFJK, ICntrl=  10002127 FMM=F ISym2X=0 I1Cent= 0 IOpClX= 0 NMat=1 NMatS=1 NMatT=0.
 -------------------------------------------------------------------
 Center     Atomic                   Forces (Hartrees/Bohr)
 Number     Number              X              Y              Z
 -------------------------------------------------------------------
      1        1           0.000000000   -0.003746786    0.004291956
      2        1           0.000000000    0.003746786    0.004291956
      3        8           0.000000000    0.000000000   -0.008583912
 -------------------------------------------------------------------
 Cartesian Forces:  Max     0.008583912 RMS     0.003924314

 GradGradGradGradGradGradGradGradGradGradGradGradGradGradGradGradGradGrad
 Berny optimization.
 Search for a local minimum.
 Step number   1 out of a maximum of    2
 All quantities printed in internal units (Hartrees-Bohrs-Radians)
 Second derivative matrix not updated -- first step.
 The second derivative matrix:
                          X1        Y1        Z1        X2        Y2
           X1           1.00000
           Y1           0.00000   0.35428
           Z1           0.00000  -0.24087   0.23759
           X2           0.00000   0.00000   0.00000   1.00000
           Y2           0.00000  -0.01839  -0.02337   0.00000   0.35428
           Z2           0.00000   0.02337   0.02971   0.00000   0.24087
           X3           0.00000   0.00000   0.00000   0.00000   0.00000
           Y3           0.00000  -0.33590   0.26424   0.00000  -0.33590
           Z3           0.00000   0.21750  -0.26730   0.00000  -0.21750
                          Z2        X3        Y3        Z3
           Z2           0.23759
           X3           0.00000   1.00000
           Y3          -0.26424   0.00000   0.67179
           Z3          -0.26730   0.00000   0.00000   0.53460
 ITU=  0
     Eigenvalues ---    0.14299   0.85285   0.97238
 Angle between quadratic step and forces=  32.92 degrees.
 Linear search not attempted -- first point.
 TrRot=  0.000000  0.000000 -0.003787  0.000000  0.000000  0.000000
 Variable       Old X    -DE/DX   Delta X   Delta X   Delta X     New X
                                 (Linear)    (Quad)   (Total)
    X1        0.00000   0.00000   0.00000   0.00000   0.00000   0.00000
    Y1        1.43349  -0.00375   0.00000  -0.00130  -0.00130   1.43219
    Z1       -0.88704   0.00429   0.00000   0.00879   0.00500  -0.88204
    X2        0.00000   0.00000   0.00000   0.00000   0.00000   0.00000
    Y2       -1.43349   0.00375   0.00000   0.00130   0.00130  -1.43219
    Z2       -0.88704   0.00429   0.00000   0.00879   0.00500  -0.88204
    X3        0.00000   0.00000   0.00000   0.00000   0.00000   0.00000
    Y3        0.00000   0.00000   0.00000   0.00000   0.00000   0.00000
    Z3        0.24066  -0.00858   0.00000  -0.00621  -0.01000   0.23066
         Item               Value     Threshold  Converged?
 Maximum Force            0.008584     0.000450     NO 
 RMS     Force            0.003924     0.000300     NO 
 Maximum Displacement     0.009999     0.001800     NO 
 RMS     Displacement     0.004128     0.001200     NO 
 Predicted change in Energy=-6.924593D-05
 GradGradGradGradGradGradGradGradGradGradGradGradGradGradGradGradGradGrad

 1\1\GINC-CCWSGE0250\Force\RB2PLYP-FC\def2TZVPP\H2O1\ALLOUCHE\16-May-20
 19\0\\# B2PLYP/def2tzvpp nosym scf(tight) force Pop=NPA\\xPert\\0,1\H,
 0.,0.758568,-0.469403\H,0.,-0.758568,-0.469403\O,0.,0.,0.127351\\Versi
 on=EM64L-G09RevD.01\HF=-76.3294448\MP2=-76.4132112\RMSD=3.482e-09\RMSF
 =3.924e-03\Dipole=0.,0.,-0.7733495\PG=C02V [C2(O1),SGV(H2)]\\@


 EVANS BOLDLY PUT 50 ATM. OF ETHYLENE IN A CELL WITH 25 ATM. OF OXYGEN.
 THE APPARATUS SUBSEQUENTLY BLEW UP, BUT LUCKILY NOT BEFORE HE
 OBTAINED THE SPECTRA SHOWN IN FIGURE 8.
 A.J.MERER AND R.S.MULLIKEN, CHEM.REV. 69, 645 (1969)
 Job cpu time:       0 days  0 hours  0 minutes 15.4 seconds.
 File lengths (MBytes):  RWF=      5 Int=      0 D2E=      0 Chk=      1 Scr=      1
 Normal termination of Gaussian 09 at Thu May 16 09:04:25 2019.
