begin
comment by xLogML : From a0.log file, All value are in AU
atom 0.000000000000 1.433486338220 -0.887043465608 H 0.456920000000 0.000000000000 0.000000000000 0.000001741000 0.000006944000
atom 0.000000000000 -1.433486338220 -0.887043465608 H 0.456920000000 0.000000000000 0.000000000000 -0.000001741000 0.000006944000
atom 0.000000000000 0.000000000000 0.221761338834 O -0.913840000000 0.000000000000 0.000000000000 0.000000000000 -0.000013888000
energy  -76.41329261811300
charge  0.00000000000000
dipole 0.00000000000000 0.00000000000000 -0.78536559151880
end
begin
comment by xLogML : From amx1.log file, All value are in AU
atom -0.018897268778 1.433486338220 -0.887043465608 H 0.456930000000 0.000000000000 0.000000402000 -0.000040641000 0.000039032000
atom 0.000000000000 -1.433486338220 -0.887043465608 H 0.456920000000 0.000000000000 0.000000328000 -0.000002309000 0.000005916000
atom 0.000000000000 0.000000000000 0.221761338834 O -0.913850000000 0.000000000000 -0.000000730000 0.000042950000 -0.000044948000
energy  -76.41329261693200
charge  0.00000000000000
dipole -0.00668831532703 0.00000000000000 -0.78536559151880
end
begin
comment by xLogML : From amx2.log file, All value are in AU
atom 0.000000000000 1.433486338220 -0.887043465608 H 0.456920000000 0.000000000000 0.000000328000 0.000002309000 0.000005916000
atom -0.018897268778 -1.433486338220 -0.887043465608 H 0.456930000000 0.000000000000 0.000000402000 0.000040641000 0.000039032000
atom 0.000000000000 0.000000000000 0.221761338834 O -0.913850000000 0.000000000000 -0.000000730000 -0.000042950000 -0.000044948000
energy  -76.41329261693200
charge  0.00000000000000
dipole -0.00668831532703 0.00000000000000 -0.78536559151880
end
begin
comment by xLogML : From amx3.log file, All value are in AU
atom 0.000000000000 1.433486338220 -0.887043465608 H 0.456920000000 0.000000000000 -0.000000810000 -0.000031165000 0.000043708000
atom 0.000000000000 -1.433486338220 -0.887043465608 H 0.456920000000 0.000000000000 -0.000000810000 0.000031165000 0.000043708000
atom -0.018897268778 0.000000000000 0.221761338834 O -0.913840000000 0.000000000000 0.000001620000 0.000000000000 -0.000087416000
energy  -76.41329260873100
charge  0.00000000000000
dipole 0.01337663065406 0.00000000000000 -0.78532624848746
end
begin
comment by xLogML : From amy1.log file, All value are in AU
atom 0.000000000000 1.414589069442 -0.887043465608 H 0.455820000000 0.000000000000 0.000000000000 0.007237579000 -0.004595175000
atom 0.000000000000 -1.433486338220 -0.887043465608 H 0.456390000000 0.000000000000 0.000000000000 -0.000600699000 0.000599195000
atom 0.000000000000 0.000000000000 0.221761338834 O -0.912210000000 0.000000000000 0.000000000000 -0.006636880000 0.003995980000
energy  -76.41322467027200
charge  0.00000000000000
dipole 0.00000000000000 -0.00483919285426 -0.78650653942753
end
begin
comment by xLogML : From amy2.log file, All value are in AU
atom 0.000000000000 1.433486338220 -0.887043465608 H 0.457440000000 0.000000000000 0.000000000000 -0.000577982000 -0.000579644000
atom 0.000000000000 -1.452383606997 -0.887043465608 H 0.457970000000 0.000000000000 0.000000000000 0.006948552000 0.004291693000
atom 0.000000000000 0.000000000000 0.221761338834 O -0.915410000000 0.000000000000 0.000000000000 -0.006370570000 -0.003712049000
energy  -76.41322653482300
charge  0.00000000000000
dipole 0.00000000000000 -0.00483919285426 -0.78422464361007
end
begin
comment by xLogML : From amy3.log file, All value are in AU
atom 0.000000000000 1.433486338220 -0.887043465608 H 0.457420000000 0.000000000000 0.000000000000 -0.006368763000 0.004876818000
atom 0.000000000000 -1.433486338220 -0.887043465608 H 0.456310000000 0.000000000000 0.000000000000 -0.006638555000 -0.005188899000
atom 0.000000000000 -0.018897268778 0.221761338834 O -0.913730000000 0.000000000000 0.000000000000 0.013007318000 0.000312080000
energy  -76.41316972379801
charge  0.00000000000000
dipole 0.00000000000000 0.00971772873986 -0.78536559151880
end
begin
comment by xLogML : From amz1.log file, All value are in AU
atom 0.000000000000 1.433486338220 -0.905940734386 H 0.456980000000 0.000000000000 0.000000000000 -0.004333003000 0.004082333000
atom 0.000000000000 -1.433486338220 -0.887043465608 H 0.456580000000 0.000000000000 0.000000000000 -0.000586207000 0.000219801000
atom 0.000000000000 0.000000000000 0.221761338834 O -0.913560000000 0.000000000000 0.000000000000 0.004919209000 -0.004302133000
energy  -76.41325388354400
charge  0.00000000000000
dipole 0.00000000000000 -0.00145569215941 -0.78894580737033
end
begin
comment by xLogML : From amz2.log file, All value are in AU
atom 0.000000000000 1.433486338220 -0.887043465608 H 0.456580000000 0.000000000000 0.000000000000 0.000586207000 0.000219801000
atom 0.000000000000 -1.433486338220 -0.905940734386 H 0.456980000000 0.000000000000 0.000000000000 0.004333003000 0.004082333000
atom 0.000000000000 0.000000000000 0.221761338834 O -0.913560000000 0.000000000000 0.000000000000 -0.004919209000 -0.004302133000
energy  -76.41325388354400
charge  0.00000000000000
dipole 0.00000000000000 0.00145569215941 -0.78894580737033
end
begin
comment by xLogML : From amz3.log file, All value are in AU
atom 0.000000000000 1.433486338220 -0.887043465608 H 0.457180000000 0.000000000000 0.000000000000 0.003957543000 -0.004346042000
atom 0.000000000000 -1.433486338220 -0.887043465608 H 0.457180000000 0.000000000000 0.000000000000 -0.003957543000 -0.004346042000
atom 0.000000000000 0.000000000000 0.202864070056 O -0.914360000000 0.000000000000 0.000000000000 0.000000000000 0.008692083000
energy  -76.41321082500700
charge  0.00000000000000
dipole 0.00000000000000 0.00000000000000 -0.77812647375307
end
begin
comment by xLogML : From apx1.log file, All value are in AU
atom 0.018897268778 1.433486338220 -0.887043465608 H 0.456930000000 0.000000000000 -0.000000402000 -0.000040641000 0.000039032000
atom 0.000000000000 -1.433486338220 -0.887043465608 H 0.456920000000 0.000000000000 -0.000000328000 -0.000002309000 0.000005916000
atom 0.000000000000 0.000000000000 0.221761338834 O -0.913850000000 0.000000000000 0.000000730000 0.000042950000 -0.000044948000
energy  -76.41329261693200
charge  0.00000000000000
dipole 0.00668831532703 0.00000000000000 -0.78536559151880
end
begin
comment by xLogML : From apx2.log file, All value are in AU
atom 0.000000000000 1.433486338220 -0.887043465608 H 0.456920000000 0.000000000000 -0.000000328000 0.000002309000 0.000005916000
atom 0.018897268778 -1.433486338220 -0.887043465608 H 0.456930000000 0.000000000000 -0.000000402000 0.000040641000 0.000039032000
atom 0.000000000000 0.000000000000 0.221761338834 O -0.913850000000 0.000000000000 0.000000730000 -0.000042950000 -0.000044948000
energy  -76.41329261693200
charge  0.00000000000000
dipole 0.00668831532703 0.00000000000000 -0.78536559151880
end
begin
comment by xLogML : From apx3.log file, All value are in AU
atom 0.000000000000 1.433486338220 -0.887043465608 H 0.456920000000 0.000000000000 0.000000810000 -0.000031165000 0.000043708000
atom 0.000000000000 -1.433486338220 -0.887043465608 H 0.456920000000 0.000000000000 0.000000810000 0.000031165000 0.000043708000
atom 0.018897268778 0.000000000000 0.221761338834 O -0.913840000000 0.000000000000 -0.000001620000 0.000000000000 -0.000087416000
energy  -76.41329260873100
charge  0.00000000000000
dipole -0.01337663065406 0.00000000000000 -0.78532624848746
end
begin
comment by xLogML : From apy1.log file, All value are in AU
atom 0.000000000000 1.452383606997 -0.887043465608 H 0.457970000000 0.000000000000 0.000000000000 -0.006948552000 0.004291693000
atom 0.000000000000 -1.433486338220 -0.887043465608 H 0.457440000000 0.000000000000 0.000000000000 0.000577982000 -0.000579644000
atom 0.000000000000 0.000000000000 0.221761338834 O -0.915410000000 0.000000000000 0.000000000000 0.006370570000 -0.003712049000
energy  -76.41322653482300
charge  0.00000000000000
dipole 0.00000000000000 0.00483919285426 -0.78422464361007
end
begin
comment by xLogML : From apy2.log file, All value are in AU
atom 0.000000000000 1.433486338220 -0.887043465608 H 0.456390000000 0.000000000000 0.000000000000 0.000600699000 0.000599195000
atom 0.000000000000 -1.414589069442 -0.887043465608 H 0.455820000000 0.000000000000 0.000000000000 -0.007237579000 -0.004595175000
atom 0.000000000000 0.000000000000 0.221761338834 O -0.912210000000 0.000000000000 0.000000000000 0.006636880000 0.003995980000
energy  -76.41322467027200
charge  0.00000000000000
dipole 0.00000000000000 0.00483919285426 -0.78650653942753
end
begin
comment by xLogML : From apy3.log file, All value are in AU
atom 0.000000000000 1.433486338220 -0.887043465608 H 0.456310000000 0.000000000000 0.000000000000 0.006638555000 -0.005188899000
atom 0.000000000000 -1.433486338220 -0.887043465608 H 0.457420000000 0.000000000000 0.000000000000 0.006368763000 0.004876818000
atom 0.000000000000 0.018897268778 0.221761338834 O -0.913730000000 0.000000000000 0.000000000000 -0.013007318000 0.000312080000
energy  -76.41316972379801
charge  0.00000000000000
dipole 0.00000000000000 -0.00971772873986 -0.78536559151880
end
begin
comment by xLogML : From apz1.log file, All value are in AU
atom 0.000000000000 1.433486338220 -0.868146196830 H 0.456820000000 0.000000000000 0.000000000000 0.004549801000 -0.004126968000
atom 0.000000000000 -1.433486338220 -0.887043465608 H 0.457280000000 0.000000000000 0.000000000000 0.000592564000 -0.000209064000
atom 0.000000000000 0.000000000000 0.221761338834 O -0.914100000000 0.000000000000 0.000000000000 -0.005142365000 0.004336032000
energy  -76.41325377715800
charge  0.00000000000000
dipole 0.00000000000000 0.00141634912808 -0.78174603263593
end
begin
comment by xLogML : From apz2.log file, All value are in AU
atom 0.000000000000 1.433486338220 -0.887043465608 H 0.457280000000 0.000000000000 0.000000000000 -0.000592564000 -0.000209064000
atom 0.000000000000 -1.433486338220 -0.868146196830 H 0.456820000000 0.000000000000 0.000000000000 -0.004549801000 -0.004126968000
atom 0.000000000000 0.000000000000 0.221761338834 O -0.914100000000 0.000000000000 0.000000000000 0.005142365000 0.004336032000
energy  -76.41325377715800
charge  0.00000000000000
dipole 0.00000000000000 -0.00141634912808 -0.78174603263593
end
begin
comment by xLogML : From apz3.log file, All value are in AU
atom 0.000000000000 1.433486338220 -0.887043465608 H 0.456650000000 0.000000000000 0.000000000000 -0.003746786000 0.004291956000
atom 0.000000000000 -1.433486338220 -0.887043465608 H 0.456650000000 0.000000000000 0.000000000000 0.003746786000 0.004291956000
atom 0.000000000000 0.000000000000 0.240658607611 O -0.913300000000 0.000000000000 0.000000000000 0.000000000000 -0.008583912000
energy  -76.41321115687100
charge  0.00000000000000
dipole 0.00000000000000 0.00000000000000 -0.79252602322185
end
