begin
comment by xLogML
atom 1.123249876695 -0.812794206853 -0.381900573910 H 0.486490000000 0.000000000000 0.005348952000 -0.021434125000 0.003609938000
atom 0.246325898518 1.769468438727 -1.268804199729 H 0.486480000000 0.000000000000 -0.008156370000 0.018299355000 -0.010060291000
atom 1.087069165893 0.933054535628 0.100684648048 O -0.972970000000 0.000000000000 0.002807417000 0.003134769000 0.006450353000
energy  -76.3996668170
charge  0
end
begin
comment by xLogML
atom 1.104352607918 -0.812794206853 -0.381900573910 H 0.486140000000 0.000000000000 0.005397256000 -0.021945895000 0.003894026000
atom 0.246325898518 1.769468438727 -1.268804199729 H 0.486160000000 0.000000000000 -0.008113835000 0.018828601000 -0.010038578000
atom 1.087069165893 0.933054535628 0.100684648048 O -0.972290000000 0.000000000000 0.002716579000 0.003117293000 0.006144552000
energy  -76.3995652660
charge  0
end
begin
comment by xLogML
atom 1.123249876695 -0.812794206853 -0.381900573910 H 0.486580000000 0.000000000000 0.005386175000 -0.021500018000 0.003445953000
atom 0.227428629740 1.769468438727 -1.268804199729 H 0.487350000000 0.000000000000 -0.006052095000 0.015922738000 -0.006472757000
atom 1.087069165893 0.933054535628 0.100684648048 O -0.973930000000 0.000000000000 0.000665920000 0.005577280000 0.003026804000
energy  -76.3998011369
charge  0
end
begin
comment by xLogML
atom 1.123249876695 -0.812794206853 -0.381900573910 H 0.486770000000 0.000000000000 0.005254912000 -0.020759541000 0.003518164000
atom 0.246325898518 1.769468438727 -1.268804199729 H 0.485910000000 0.000000000000 -0.010254020000 0.020207429000 -0.013765454000
atom 1.068171897116 0.933054535628 0.100684648048 O -0.972680000000 0.000000000000 0.004999108000 0.000552111000 0.010247290000
energy  -76.3995929862
charge  0
end
begin
comment by xLogML
atom 1.123249876695 -0.831691475631 -0.381900573910 H 0.488520000000 0.000000000000 0.004800028000 -0.011715734000 0.005644736000
atom 0.246325898518 1.769468438727 -1.268804199729 H 0.486960000000 0.000000000000 -0.008224141000 0.017752382000 -0.010398400000
atom 1.087069165893 0.933054535628 0.100684648048 O -0.975480000000 0.000000000000 0.003424113000 -0.006036648000 0.004753663000
energy  -76.3999790579
charge  0
end
begin
comment by xLogML
atom 1.123249876695 -0.812794206853 -0.381900573910 H 0.485740000000 0.000000000000 0.005882396000 -0.021992712000 0.004430609000
atom 0.246325898518 1.750571169949 -1.268804199729 H 0.484940000000 0.000000000000 -0.010591638000 0.021567542000 -0.013685645000
atom 1.087069165893 0.933054535628 0.100684648048 O -0.970680000000 0.000000000000 0.004709242000 0.000425170000 0.009255035000
energy  -76.3992900865
charge  0
end
begin
comment by xLogML
atom 1.123249876695 -0.812794206853 -0.381900573910 H 0.485010000000 0.000000000000 0.005392017000 -0.031240347000 0.000531231000
atom 0.246325898518 1.769468438727 -1.268804199729 H 0.487520000000 0.000000000000 -0.005716040000 0.015546649000 -0.006192890000
atom 1.087069165893 0.914157266850 0.100684648048 O -0.972520000000 0.000000000000 0.000324022000 0.015693698000 0.005661658000
energy  -76.3994900137
charge  0
end
begin
comment by xLogML
atom 1.123249876695 -0.812794206853 -0.400797842688 H 0.486460000000 0.000000000000 0.005617481000 -0.019281338000 0.004662418000
atom 0.246325898518 1.769468438727 -1.268804199729 H 0.486000000000 0.000000000000 -0.008321814000 0.019114059000 -0.010004140000
atom 1.087069165893 0.933054535628 0.100684648048 O -0.972460000000 0.000000000000 0.002704333000 0.000167280000 0.005341722000
energy  -76.3995887357
charge  0
end
begin
comment by xLogML
atom 1.123249876695 -0.812794206853 -0.381900573910 H 0.486430000000 0.000000000000 0.005371767000 -0.021767240000 0.003661719000
atom 0.246325898518 1.769468438727 -1.287701468507 H 0.487650000000 0.000000000000 -0.004635834000 0.014830481000 -0.004414401000
atom 1.087069165893 0.933054535628 0.100684648048 O -0.974080000000 0.000000000000 -0.000735933000 0.006936758000 0.000752682000
energy  -76.3998032534
charge  0
end
begin
comment by xLogML
atom 1.123249876695 -0.812794206853 -0.381900573910 H 0.486600000000 0.000000000000 0.005047454000 -0.023216554000 0.002555622000
atom 0.246325898518 1.769468438727 -1.268804199729 H 0.485690000000 0.000000000000 -0.011745319000 0.021167009000 -0.015974233000
atom 1.087069165893 0.933054535628 0.081787379270 O -0.972290000000 0.000000000000 0.006697865000 0.002049545000 0.013418611000
energy  -76.3994793410
charge  0
end
begin
comment by xLogML
atom 1.142147145473 -0.812794206853 -0.381900573910 H 0.486860000000 0.000000000000 0.005290226000 -0.020821299000 0.003351878000
atom 0.246325898518 1.769468438727 -1.268804199729 H 0.486820000000 0.000000000000 -0.008192687000 0.017771904000 -0.010088926000
atom 1.087069165893 0.933054535628 0.100684648048 O -0.973680000000 0.000000000000 0.002902461000 0.003049395000 0.006737049000
energy  -76.3997673615
charge  0
end
begin
comment by xLogML
atom 1.123249876695 -0.812794206853 -0.381900573910 H 0.486400000000 0.000000000000 0.005307419000 -0.021368804000 0.003772012000
atom 0.265223167296 1.769468438727 -1.268804199729 H 0.485590000000 0.000000000000 -0.010213431000 0.020728167000 -0.013736708000
atom 1.087069165893 0.933054535628 0.100684648048 O -0.971990000000 0.000000000000 0.004906013000 0.000640637000 0.009964696000
energy  -76.3994931684
charge  0
end
begin
comment by xLogML
atom 1.123249876695 -0.812794206853 -0.381900573910 H 0.486220000000 0.000000000000 0.005440682000 -0.022015263000 0.003734124000
atom 0.246325898518 1.769468438727 -1.268804199729 H 0.487010000000 0.000000000000 -0.006013856000 0.016458528000 -0.006451193000
atom 1.105966434671 0.933054535628 0.100684648048 O -0.973240000000 0.000000000000 0.000573174000 0.005556735000 0.002717069000
energy  -76.3996988227
charge  0
end
begin
comment by xLogML
atom 1.123249876695 -0.793896938076 -0.381900573910 H 0.484270000000 0.000000000000 0.005925180000 -0.031791107000 0.001358343000
atom 0.246325898518 1.769468438727 -1.268804199729 H 0.485990000000 0.000000000000 -0.008092889000 0.018854078000 -0.009722968000
atom 1.087069165893 0.933054535628 0.100684648048 O -0.970260000000 0.000000000000 0.002167710000 0.012937028000 0.008364626000
energy  -76.3991649455
charge  0
end
begin
comment by xLogML
atom 1.123249876695 -0.812794206853 -0.381900573910 H 0.487240000000 0.000000000000 0.004825492000 -0.020891256000 0.002796215000
atom 0.246325898518 1.788365707504 -1.268804199729 H 0.488020000000 0.000000000000 -0.005785892000 0.015007709000 -0.006534431000
atom 1.087069165893 0.933054535628 0.100684648048 O -0.975260000000 0.000000000000 0.000960399000 0.005883548000 0.003738216000
energy  -76.3999815540
charge  0
end
begin
comment by xLogML
atom 1.123249876695 -0.812794206853 -0.381900573910 H 0.487750000000 0.000000000000 0.005323802000 -0.012266176000 0.006452275000
atom 0.246325898518 1.769468438727 -1.268804199729 H 0.485400000000 0.000000000000 -0.010652952000 0.021004755000 -0.014019366000
atom 1.087069165893 0.951951804406 0.100684648048 O -0.973150000000 0.000000000000 0.005329150000 -0.008738579000 0.007567091000
energy  -76.3996128037
charge  0
end
begin
comment by xLogML
atom 1.123249876695 -0.812794206853 -0.363003305132 H 0.486530000000 0.000000000000 0.005075271000 -0.023559450000 0.002609382000
atom 0.246325898518 1.769468438727 -1.268804199729 H 0.486980000000 0.000000000000 -0.007995941000 0.017480046000 -0.010113175000
atom 1.087069165893 0.933054535628 0.100684648048 O -0.973510000000 0.000000000000 0.002920670000 0.006079404000 0.007503793000
energy  -76.3997254986
charge  0
end
begin
comment by xLogML
atom 1.123249876695 -0.812794206853 -0.381900573910 H 0.486550000000 0.000000000000 0.005321514000 -0.021091966000 0.003552865000
atom 0.246325898518 1.769468438727 -1.249906930951 H 0.485200000000 0.000000000000 -0.011904405000 0.021985695000 -0.015916153000
atom 1.087069165893 0.933054535628 0.100684648048 O -0.971760000000 0.000000000000 0.006582891000 -0.000893729000 0.012363288000
energy  -76.3994217074
charge  0
end
begin
comment by xLogML
atom 1.123249876695 -0.812794206853 -0.381900573910 H 0.486400000000 0.000000000000 0.005639854000 -0.019613599000 0.004717362000
atom 0.246325898518 1.769468438727 -1.268804199729 H 0.487170000000 0.000000000000 -0.004802437000 0.015645497000 -0.004363480000
atom 1.087069165893 0.933054535628 0.119581916826 O -0.973570000000 0.000000000000 -0.000837417000 0.003968103000 -0.000353883000
energy  -76.3997241611
charge  0
end
