begin
comment by xLogML : From a0.log file, All value are in AU
atom 0.000000000000 1.433486338220 -0.887043465608 H 0.456920000000 0.000000000000 0.000000000000 0.000001741000 0.000006944000
atom 0.000000000000 -1.433486338220 -0.887043465608 H 0.456920000000 0.000000000000 0.000000000000 -0.000001741000 0.000006944000
atom 0.000000000000 0.000000000000 0.221761338834 O -0.913840000000 0.000000000000 0.000000000000 0.000000000000 -0.000013888000
energy  -76.41329261811300
charge  0.00000000000000
dipole 0.00000000000000 0.00000000000000 -0.78536559151880
end
begin
comment by xLogML : From amx1.log file, All value are in AU
atom -0.018897268778 1.433486338220 -0.887043465608 H 0.456930000000 0.000000000000 0.000000402000 -0.000040641000 0.000039032000
atom 0.000000000000 -1.433486338220 -0.887043465608 H 0.456920000000 0.000000000000 0.000000328000 -0.000002309000 0.000005916000
atom 0.000000000000 0.000000000000 0.221761338834 O -0.913850000000 0.000000000000 -0.000000730000 0.000042950000 -0.000044948000
energy  -76.41329261693200
charge  0.00000000000000
dipole -0.00668831532703 0.00000000000000 -0.78536559151880
end
begin
comment by xLogML : From amx2.log file, All value are in AU
atom 0.000000000000 1.433486338220 -0.887043465608 H 0.456920000000 0.000000000000 0.000000328000 0.000002309000 0.000005916000
atom -0.018897268778 -1.433486338220 -0.887043465608 H 0.456930000000 0.000000000000 0.000000402000 0.000040641000 0.000039032000
atom 0.000000000000 0.000000000000 0.221761338834 O -0.913850000000 0.000000000000 -0.000000730000 -0.000042950000 -0.000044948000
energy  -76.41329261693200
charge  0.00000000000000
dipole -0.00668831532703 0.00000000000000 -0.78536559151880
end
begin
comment by xLogML : From amx3.log file, All value are in AU
atom 0.000000000000 1.433486338220 -0.887043465608 H 0.456920000000 0.000000000000 -0.000000810000 -0.000031165000 0.000043708000
atom 0.000000000000 -1.433486338220 -0.887043465608 H 0.456920000000 0.000000000000 -0.000000810000 0.000031165000 0.000043708000
atom -0.018897268778 0.000000000000 0.221761338834 O -0.913840000000 0.000000000000 0.000001620000 0.000000000000 -0.000087416000
energy  -76.41329260873100
charge  0.00000000000000
dipole 0.01337663065406 0.00000000000000 -0.78532624848746
end
begin
comment by xLogML : From amy1.log file, All value are in AU
atom 0.000000000000 1.414589069442 -0.887043465608 H 0.455820000000 0.000000000000 0.000000000000 0.007237579000 -0.004595175000
atom 0.000000000000 -1.433486338220 -0.887043465608 H 0.456390000000 0.000000000000 0.000000000000 -0.000600699000 0.000599195000
atom 0.000000000000 0.000000000000 0.221761338834 O -0.912210000000 0.000000000000 0.000000000000 -0.006636880000 0.003995980000
energy  -76.41322467027200
charge  0.00000000000000
dipole 0.00000000000000 -0.00483919285426 -0.78650653942753
end
begin
comment by xLogML : From amy2.log file, All value are in AU
atom 0.000000000000 1.433486338220 -0.887043465608 H 0.457440000000 0.000000000000 0.000000000000 -0.000577982000 -0.000579644000
atom 0.000000000000 -1.452383606997 -0.887043465608 H 0.457970000000 0.000000000000 0.000000000000 0.006948552000 0.004291693000
atom 0.000000000000 0.000000000000 0.221761338834 O -0.915410000000 0.000000000000 0.000000000000 -0.006370570000 -0.003712049000
energy  -76.41322653482300
charge  0.00000000000000
dipole 0.00000000000000 -0.00483919285426 -0.78422464361007
end
begin
comment by xLogML : From amy3.log file, All value are in AU
atom 0.000000000000 1.433486338220 -0.887043465608 H 0.457420000000 0.000000000000 0.000000000000 -0.006368763000 0.004876818000
atom 0.000000000000 -1.433486338220 -0.887043465608 H 0.456310000000 0.000000000000 0.000000000000 -0.006638555000 -0.005188899000
atom 0.000000000000 -0.018897268778 0.221761338834 O -0.913730000000 0.000000000000 0.000000000000 0.013007318000 0.000312080000
energy  -76.41316972379801
charge  0.00000000000000
dipole 0.00000000000000 0.00971772873986 -0.78536559151880
end
begin
comment by xLogML : From amz1.log file, All value are in AU
atom 0.000000000000 1.433486338220 -0.905940734386 H 0.456980000000 0.000000000000 0.000000000000 -0.004333003000 0.004082333000
atom 0.000000000000 -1.433486338220 -0.887043465608 H 0.456580000000 0.000000000000 0.000000000000 -0.000586207000 0.000219801000
atom 0.000000000000 0.000000000000 0.221761338834 O -0.913560000000 0.000000000000 0.000000000000 0.004919209000 -0.004302133000
energy  -76.41325388354400
charge  0.00000000000000
dipole 0.00000000000000 -0.00145569215941 -0.78894580737033
end
begin
comment by xLogML : From amz2.log file, All value are in AU
atom 0.000000000000 1.433486338220 -0.887043465608 H 0.456580000000 0.000000000000 0.000000000000 0.000586207000 0.000219801000
atom 0.000000000000 -1.433486338220 -0.905940734386 H 0.456980000000 0.000000000000 0.000000000000 0.004333003000 0.004082333000
atom 0.000000000000 0.000000000000 0.221761338834 O -0.913560000000 0.000000000000 0.000000000000 -0.004919209000 -0.004302133000
energy  -76.41325388354400
charge  0.00000000000000
dipole 0.00000000000000 0.00145569215941 -0.78894580737033
end
begin
comment by xLogML : From amz3.log file, All value are in AU
atom 0.000000000000 1.433486338220 -0.887043465608 H 0.457180000000 0.000000000000 0.000000000000 0.003957543000 -0.004346042000
atom 0.000000000000 -1.433486338220 -0.887043465608 H 0.457180000000 0.000000000000 0.000000000000 -0.003957543000 -0.004346042000
atom 0.000000000000 0.000000000000 0.202864070056 O -0.914360000000 0.000000000000 0.000000000000 0.000000000000 0.008692083000
energy  -76.41321082500700
charge  0.00000000000000
dipole 0.00000000000000 0.00000000000000 -0.77812647375307
end
begin
comment by xLogML : From apx1.log file, All value are in AU
atom 0.018897268778 1.433486338220 -0.887043465608 H 0.456930000000 0.000000000000 -0.000000402000 -0.000040641000 0.000039032000
atom 0.000000000000 -1.433486338220 -0.887043465608 H 0.456920000000 0.000000000000 -0.000000328000 -0.000002309000 0.000005916000
atom 0.000000000000 0.000000000000 0.221761338834 O -0.913850000000 0.000000000000 0.000000730000 0.000042950000 -0.000044948000
energy  -76.41329261693200
charge  0.00000000000000
dipole 0.00668831532703 0.00000000000000 -0.78536559151880
end
begin
comment by xLogML : From apx2.log file, All value are in AU
atom 0.000000000000 1.433486338220 -0.887043465608 H 0.456920000000 0.000000000000 -0.000000328000 0.000002309000 0.000005916000
atom 0.018897268778 -1.433486338220 -0.887043465608 H 0.456930000000 0.000000000000 -0.000000402000 0.000040641000 0.000039032000
atom 0.000000000000 0.000000000000 0.221761338834 O -0.913850000000 0.000000000000 0.000000730000 -0.000042950000 -0.000044948000
energy  -76.41329261693200
charge  0.00000000000000
dipole 0.00668831532703 0.00000000000000 -0.78536559151880
end
begin
comment by xLogML : From apx3.log file, All value are in AU
atom 0.000000000000 1.433486338220 -0.887043465608 H 0.456920000000 0.000000000000 0.000000810000 -0.000031165000 0.000043708000
atom 0.000000000000 -1.433486338220 -0.887043465608 H 0.456920000000 0.000000000000 0.000000810000 0.000031165000 0.000043708000
atom 0.018897268778 0.000000000000 0.221761338834 O -0.913840000000 0.000000000000 -0.000001620000 0.000000000000 -0.000087416000
energy  -76.41329260873100
charge  0.00000000000000
dipole -0.01337663065406 0.00000000000000 -0.78532624848746
end
begin
comment by xLogML : From apy1.log file, All value are in AU
atom 0.000000000000 1.452383606997 -0.887043465608 H 0.457970000000 0.000000000000 0.000000000000 -0.006948552000 0.004291693000
atom 0.000000000000 -1.433486338220 -0.887043465608 H 0.457440000000 0.000000000000 0.000000000000 0.000577982000 -0.000579644000
atom 0.000000000000 0.000000000000 0.221761338834 O -0.915410000000 0.000000000000 0.000000000000 0.006370570000 -0.003712049000
energy  -76.41322653482300
charge  0.00000000000000
dipole 0.00000000000000 0.00483919285426 -0.78422464361007
end
begin
comment by xLogML : From apy2.log file, All value are in AU
atom 0.000000000000 1.433486338220 -0.887043465608 H 0.456390000000 0.000000000000 0.000000000000 0.000600699000 0.000599195000
atom 0.000000000000 -1.414589069442 -0.887043465608 H 0.455820000000 0.000000000000 0.000000000000 -0.007237579000 -0.004595175000
atom 0.000000000000 0.000000000000 0.221761338834 O -0.912210000000 0.000000000000 0.000000000000 0.006636880000 0.003995980000
energy  -76.41322467027200
charge  0.00000000000000
dipole 0.00000000000000 0.00483919285426 -0.78650653942753
end
begin
comment by xLogML : From apy3.log file, All value are in AU
atom 0.000000000000 1.433486338220 -0.887043465608 H 0.456310000000 0.000000000000 0.000000000000 0.006638555000 -0.005188899000
atom 0.000000000000 -1.433486338220 -0.887043465608 H 0.457420000000 0.000000000000 0.000000000000 0.006368763000 0.004876818000
atom 0.000000000000 0.018897268778 0.221761338834 O -0.913730000000 0.000000000000 0.000000000000 -0.013007318000 0.000312080000
energy  -76.41316972379801
charge  0.00000000000000
dipole 0.00000000000000 -0.00971772873986 -0.78536559151880
end
begin
comment by xLogML : From apz1.log file, All value are in AU
atom 0.000000000000 1.433486338220 -0.868146196830 H 0.456820000000 0.000000000000 0.000000000000 0.004549801000 -0.004126968000
atom 0.000000000000 -1.433486338220 -0.887043465608 H 0.457280000000 0.000000000000 0.000000000000 0.000592564000 -0.000209064000
atom 0.000000000000 0.000000000000 0.221761338834 O -0.914100000000 0.000000000000 0.000000000000 -0.005142365000 0.004336032000
energy  -76.41325377715800
charge  0.00000000000000
dipole 0.00000000000000 0.00141634912808 -0.78174603263593
end
begin
comment by xLogML : From apz2.log file, All value are in AU
atom 0.000000000000 1.433486338220 -0.887043465608 H 0.457280000000 0.000000000000 0.000000000000 -0.000592564000 -0.000209064000
atom 0.000000000000 -1.433486338220 -0.868146196830 H 0.456820000000 0.000000000000 0.000000000000 -0.004549801000 -0.004126968000
atom 0.000000000000 0.000000000000 0.221761338834 O -0.914100000000 0.000000000000 0.000000000000 0.005142365000 0.004336032000
energy  -76.41325377715800
charge  0.00000000000000
dipole 0.00000000000000 -0.00141634912808 -0.78174603263593
end
begin
comment by xLogML : From apz3.log file, All value are in AU
atom 0.000000000000 1.433486338220 -0.887043465608 H 0.456650000000 0.000000000000 0.000000000000 -0.003746786000 0.004291956000
atom 0.000000000000 -1.433486338220 -0.887043465608 H 0.456650000000 0.000000000000 0.000000000000 0.003746786000 0.004291956000
atom 0.000000000000 0.000000000000 0.240658607611 O -0.913300000000 0.000000000000 0.000000000000 0.000000000000 -0.008583912000
energy  -76.41321115687100
charge  0.00000000000000
dipole 0.00000000000000 0.00000000000000 -0.79252602322185
end
begin
comment by xLogML : From a0.log file, All value are in AU
atom 0.000000000000 1.433486338220 -0.887043465608 H 0.456920000000 0.000000000000 0.000000000000 0.000001741000 0.000006944000
atom 0.000000000000 -1.433486338220 -0.887043465608 H 0.456920000000 0.000000000000 0.000000000000 -0.000001741000 0.000006944000
atom 0.000000000000 0.000000000000 0.221761338834 O -0.913840000000 0.000000000000 0.000000000000 0.000000000000 -0.000013888000
energy  -76.41329261811300
charge  0.00000000000000
dipole 0.00000000000000 0.00000000000000 -0.78536559151880
end
begin
comment by xLogML : From amx1.log file, All value are in AU
atom -0.094486343889 1.433486338220 -0.887043465608 H 0.457020000000 0.000000000000 0.000067985000 -0.001050998000 0.000804187000
atom 0.000000000000 -1.433486338220 -0.887043465608 H 0.456930000000 0.000000000000 0.000000939000 -0.000015880000 -0.000018739000
atom 0.000000000000 0.000000000000 0.221761338834 O -0.913950000000 0.000000000000 -0.000068924000 0.001066878000 -0.000785448000
energy  -76.41329102664800
charge  0.00000000000000
dipole -0.03344157663516 -0.00031474425068 -0.78497216120544
end
begin
comment by xLogML : From amx2.log file, All value are in AU
atom 0.000000000000 1.433486338220 -0.887043465608 H 0.456930000000 0.000000000000 0.000000939000 0.000015880000 -0.000018739000
atom -0.094486343889 -1.433486338220 -0.887043465608 H 0.457020000000 0.000000000000 0.000067985000 0.001050998000 0.000804187000
atom 0.000000000000 0.000000000000 0.221761338834 O -0.913950000000 0.000000000000 -0.000068924000 -0.001066878000 -0.000785448000
energy  -76.41329102664800
charge  0.00000000000000
dipole -0.03344157663516 0.00031474425068 -0.78497216120544
end
begin
comment by xLogML : From amx3.log file, All value are in AU
atom 0.000000000000 1.433486338220 -0.887043465608 H 0.456860000000 0.000000000000 -0.000078810000 -0.000814739000 0.000919942000
atom 0.000000000000 -1.433486338220 -0.887043465608 H 0.456860000000 0.000000000000 -0.000078810000 0.000814739000 0.000919942000
atom -0.094486343889 0.000000000000 0.221761338834 O -0.913730000000 0.000000000000 0.000157619000 0.000000000000 -0.001839885000
energy  -76.41328884312701
charge  0.00000000000000
dipole 0.06680446720764 0.00000000000000 -0.78406727148473
end
begin
comment by xLogML : From amy1.log file, All value are in AU
atom 0.000000000000 1.338999994331 -0.887043465608 H 0.450830000000 0.000000000000 0.000000000000 0.039135903000 -0.026519734000
atom 0.000000000000 -1.433486338220 -0.887043465608 H 0.454140000000 0.000000000000 0.000000000000 -0.003198650000 0.003025234000
atom 0.000000000000 0.000000000000 0.221761338834 O -0.904960000000 0.000000000000 0.000000000000 -0.035937253000 0.023494499000
energy  -76.41150225577400
charge  0.00000000000000
dipole 0.00000000000000 -0.02431399336532 -0.79107033106244
end
begin
comment by xLogML : From amy2.log file, All value are in AU
atom 0.000000000000 1.433486338220 -0.887043465608 H 0.459360000000 0.000000000000 0.000000000000 -0.002713498000 -0.002869600000
atom 0.000000000000 -1.527972682108 -0.887043465608 H 0.461680000000 0.000000000000 0.000000000000 0.032004710000 0.018563967000
atom 0.000000000000 0.000000000000 0.221761338834 O -0.921040000000 0.000000000000 0.000000000000 -0.029291212000 -0.015694366000
energy  -76.41172721801800
charge  0.00000000000000
dipole 0.00000000000000 -0.02419596427132 -0.77958216591248
end
begin
comment by xLogML : From amy3.log file, All value are in AU
atom 0.000000000000 1.433486338220 -0.887043465608 H 0.458320000000 0.000000000000 0.000000000000 -0.029281712000 0.021405336000
atom 0.000000000000 -1.433486338220 -0.887043465608 H 0.452690000000 0.000000000000 0.000000000000 -0.035930634000 -0.029574796000
atom 0.000000000000 -0.094486343889 0.221761338834 O -0.911000000000 0.000000000000 0.000000000000 0.065212346000 0.008169460000
energy  -76.41021608687400
charge  0.00000000000000
dipole 0.00000000000000 0.04847061460531 -0.78548362061280
end
begin
comment by xLogML : From amz1.log file, All value are in AU
atom 0.000000000000 1.433486338220 -0.981529809497 H 0.456820000000 0.000000000000 0.000000000000 -0.019624017000 0.019694030000
atom 0.000000000000 -1.433486338220 -0.887043465608 H 0.455330000000 0.000000000000 0.000000000000 -0.002822406000 0.001036734000
atom 0.000000000000 0.000000000000 0.221761338834 O -0.912150000000 0.000000000000 0.000000000000 0.022446424000 -0.020730765000
energy  -76.41234782895000
charge  0.00000000000000
dipole 0.00000000000000 -0.00759320504775 -0.80291258349442
end
begin
comment by xLogML : From amz2.log file, All value are in AU
atom 0.000000000000 1.433486338220 -0.887043465608 H 0.455330000000 0.000000000000 0.000000000000 0.002822406000 0.001036734000
atom 0.000000000000 -1.433486338220 -0.981529809497 H 0.456820000000 0.000000000000 0.000000000000 0.019624017000 0.019694030000
atom 0.000000000000 0.000000000000 0.221761338834 O -0.912150000000 0.000000000000 0.000000000000 -0.022446424000 -0.020730765000
energy  -76.41234782895000
charge  0.00000000000000
dipole 0.00000000000000 0.00759320504775 -0.80291258349442
end
begin
comment by xLogML : From amz3.log file, All value are in AU
atom 0.000000000000 1.433486338220 -0.887043465608 H 0.458110000000 0.000000000000 0.000000000000 0.021950779000 -0.022299949000
atom 0.000000000000 -1.433486338220 -0.887043465608 H 0.458110000000 0.000000000000 0.000000000000 -0.021950779000 -0.022299949000
atom 0.000000000000 0.000000000000 0.127274994945 O -0.916210000000 0.000000000000 0.000000000000 0.000000000000 0.044599897000
energy  -76.41120611419301
charge  0.00000000000000
dipole 0.00000000000000 0.00000000000000 -0.74795036871876
end
begin
comment by xLogML : From apx1.log file, All value are in AU
atom 0.094486343889 1.433486338220 -0.887043465608 H 0.457020000000 0.000000000000 -0.000067985000 -0.001050998000 0.000804187000
atom 0.000000000000 -1.433486338220 -0.887043465608 H 0.456930000000 0.000000000000 -0.000000939000 -0.000015880000 -0.000018739000
atom 0.000000000000 0.000000000000 0.221761338834 O -0.913950000000 0.000000000000 0.000068924000 0.001066878000 -0.000785448000
energy  -76.41329102664800
charge  0.00000000000000
dipole 0.03344157663516 -0.00031474425068 -0.78497216120544
end
begin
comment by xLogML : From apx2.log file, All value are in AU
atom 0.000000000000 1.433486338220 -0.887043465608 H 0.456930000000 0.000000000000 -0.000000939000 0.000015880000 -0.000018739000
atom 0.094486343889 -1.433486338220 -0.887043465608 H 0.457020000000 0.000000000000 -0.000067985000 0.001050998000 0.000804187000
atom 0.000000000000 0.000000000000 0.221761338834 O -0.913950000000 0.000000000000 0.000068924000 -0.001066878000 -0.000785448000
energy  -76.41329102664800
charge  0.00000000000000
dipole 0.03344157663516 0.00031474425068 -0.78497216120544
end
begin
comment by xLogML : From apx3.log file, All value are in AU
atom 0.000000000000 1.433486338220 -0.887043465608 H 0.456860000000 0.000000000000 0.000078810000 -0.000814739000 0.000919942000
atom 0.000000000000 -1.433486338220 -0.887043465608 H 0.456860000000 0.000000000000 0.000078810000 0.000814739000 0.000919942000
atom 0.094486343889 0.000000000000 0.221761338834 O -0.913730000000 0.000000000000 -0.000157619000 0.000000000000 -0.001839885000
energy  -76.41328884312701
charge  0.00000000000000
dipole -0.06680446720764 0.00000000000000 -0.78406727148473
end
begin
comment by xLogML : From apy1.log file, All value are in AU
atom 0.000000000000 1.527972682108 -0.887043465608 H 0.461680000000 0.000000000000 0.000000000000 -0.032004710000 0.018563967000
atom 0.000000000000 -1.433486338220 -0.887043465608 H 0.459360000000 0.000000000000 0.000000000000 0.002713498000 -0.002869600000
atom 0.000000000000 0.000000000000 0.221761338834 O -0.921040000000 0.000000000000 0.000000000000 0.029291212000 -0.015694366000
energy  -76.41172721801800
charge  0.00000000000000
dipole 0.00000000000000 0.02419596427132 -0.77958216591248
end
begin
comment by xLogML : From apy2.log file, All value are in AU
atom 0.000000000000 1.433486338220 -0.887043465608 H 0.454140000000 0.000000000000 0.000000000000 0.003198650000 0.003025234000
atom 0.000000000000 -1.338999994331 -0.887043465608 H 0.450830000000 0.000000000000 0.000000000000 -0.039135903000 -0.026519734000
atom 0.000000000000 0.000000000000 0.221761338834 O -0.904960000000 0.000000000000 0.000000000000 0.035937253000 0.023494499000
energy  -76.41150225577400
charge  0.00000000000000
dipole 0.00000000000000 0.02431399336532 -0.79107033106244
end
begin
comment by xLogML : From apy3.log file, All value are in AU
atom 0.000000000000 1.433486338220 -0.887043465608 H 0.452690000000 0.000000000000 0.000000000000 0.035930634000 -0.029574796000
atom 0.000000000000 -1.433486338220 -0.887043465608 H 0.458320000000 0.000000000000 0.000000000000 0.029281712000 0.021405336000
atom 0.000000000000 0.094486343889 0.221761338834 O -0.911000000000 0.000000000000 0.000000000000 -0.065212346000 0.008169460000
energy  -76.41021608687400
charge  0.00000000000000
dipole 0.00000000000000 -0.04847061460531 -0.78548362061280
end
begin
comment by xLogML : From apz1.log file, All value are in AU
atom 0.000000000000 1.433486338220 -0.792557121719 H 0.456010000000 0.000000000000 0.000000000000 0.024949409000 -0.021125747000
atom 0.000000000000 -1.433486338220 -0.887043465608 H 0.458830000000 0.000000000000 0.000000000000 0.003063974000 -0.001101277000
atom 0.000000000000 0.000000000000 0.221761338834 O -0.914840000000 0.000000000000 0.000000000000 -0.028013383000 0.022227025000
energy  -76.41230337632700
charge  0.00000000000000
dipole 0.00000000000000 0.00660962926436 -0.76691370982246
end
begin
comment by xLogML : From apz2.log file, All value are in AU
atom 0.000000000000 1.433486338220 -0.887043465608 H 0.458830000000 0.000000000000 0.000000000000 -0.003063974000 -0.001101277000
atom 0.000000000000 -1.433486338220 -0.792557121719 H 0.456010000000 0.000000000000 0.000000000000 -0.024949409000 -0.021125747000
atom 0.000000000000 0.000000000000 0.221761338834 O -0.914840000000 0.000000000000 0.000000000000 0.028013383000 0.022227025000
energy  -76.41230337632700
charge  0.00000000000000
dipole 0.00000000000000 -0.00660962926436 -0.76691370982246
end
begin
comment by xLogML : From apz3.log file, All value are in AU
atom 0.000000000000 1.433486338220 -0.887043465608 H 0.455430000000 0.000000000000 0.000000000000 -0.016773026000 0.020636261000
atom 0.000000000000 -1.433486338220 -0.887043465608 H 0.455430000000 0.000000000000 0.000000000000 0.016773026000 0.020636261000
atom 0.000000000000 0.000000000000 0.316247682722 O -0.910860000000 0.000000000000 0.000000000000 0.000000000000 -0.041272522000
energy  -76.41130974437100
charge  0.00000000000000
dipole 0.00000000000000 0.00000000000000 -0.82006614515669
end
begin
comment by xLogML : From a0.log file, All value are in AU
atom 0.000000000000 1.433486338220 -0.887043465608 H 0.456920000000 0.000000000000 0.000000000000 0.000001741000 0.000006944000
atom 0.000000000000 -1.433486338220 -0.887043465608 H 0.456920000000 0.000000000000 0.000000000000 -0.000001741000 0.000006944000
atom 0.000000000000 0.000000000000 0.221761338834 O -0.913840000000 0.000000000000 0.000000000000 0.000000000000 -0.000013888000
energy  -76.41329261811300
charge  0.00000000000000
dipole 0.00000000000000 0.00000000000000 -0.78536559151880
end
begin
comment by xLogML : From amx1.log file, All value are in AU
atom -0.377945375555 1.433486338220 -0.887043465608 H 0.458220000000 0.000000000000 0.003986097000 -0.015277932000 0.011583708000
atom 0.000000000000 -1.433486338220 -0.887043465608 H 0.457000000000 0.000000000000 -0.000038856000 -0.000216892000 -0.000400024000
atom 0.000000000000 0.000000000000 0.221761338834 O -0.915210000000 0.000000000000 -0.003947241000 0.015494823000 -0.011183684000
energy  -76.41290302455000
charge  0.00000000000000
dipole -0.13211389922453 -0.00479984982293 -0.77879530528577
end
begin
comment by xLogML : From amx2.log file, All value are in AU
atom 0.000000000000 1.433486338220 -0.887043465608 H 0.457000000000 0.000000000000 -0.000038856000 0.000216892000 -0.000400024000
atom -0.377945375555 -1.433486338220 -0.887043465608 H 0.458220000000 0.000000000000 0.003986097000 0.015277932000 0.011583708000
atom 0.000000000000 0.000000000000 0.221761338834 O -0.915210000000 0.000000000000 -0.003947241000 -0.015494823000 -0.011183684000
energy  -76.41290302455000
charge  0.00000000000000
dipole -0.13211389922453 0.00479984982293 -0.77879530528577
end
begin
comment by xLogML : From amx3.log file, All value are in AU
atom 0.000000000000 1.433486338220 -0.887043465608 H 0.455970000000 0.000000000000 -0.004488238000 -0.011659682000 0.013172910000
atom 0.000000000000 -1.433486338220 -0.887043465608 H 0.455970000000 0.000000000000 -0.004488238000 0.011659682000 0.013172910000
atom -0.377945375555 0.000000000000 0.221761338834 O -0.911940000000 0.000000000000 0.008976477000 0.000000000000 -0.026345820000
energy  -76.41241150875700
charge  0.00000000000000
dipole 0.26088364078555 0.00000000000000 -0.76541867463171
end
begin
comment by xLogML : From amy1.log file, All value are in AU
atom 0.000000000000 1.055540962665 -0.887043465608 H 0.422450000000 0.000000000000 0.000000000000 0.202588784000 -0.177967849000
atom 0.000000000000 -1.433486338220 -0.887043465608 H 0.444370000000 0.000000000000 0.000000000000 -0.016390778000 0.012981324000
atom 0.000000000000 0.000000000000 0.221761338834 O -0.866820000000 0.000000000000 0.000000000000 -0.186198006000 0.164986525000
energy  -76.37885797662599
charge  0.00000000000000
dipole 0.00000000000000 -0.09749203164931 -0.80790914847403
end
begin
comment by xLogML : From amy2.log file, All value are in AU
atom 0.000000000000 1.433486338220 -0.887043465608 H 0.464390000000 0.000000000000 0.000000000000 -0.008462453000 -0.010655251000
atom 0.000000000000 -1.811431713774 -0.887043465608 H 0.469620000000 0.000000000000 0.000000000000 0.092689665000 0.043121192000
atom 0.000000000000 0.000000000000 0.221761338834 O -0.934020000000 0.000000000000 0.000000000000 -0.084227212000 -0.032465942000
energy  -76.39294492961299
charge  0.00000000000000
dipole 0.00000000000000 -0.09528882189453 -0.76109094118481
end
begin
comment by xLogML : From amy3.log file, All value are in AU
atom 0.000000000000 1.433486338220 -0.887043465608 H 0.448470000000 0.000000000000 0.000000000000 -0.083816851000 0.053402863000
atom 0.000000000000 -1.433486338220 -0.887043465608 H 0.420770000000 0.000000000000 0.000000000000 -0.185624393000 -0.191388477000
atom 0.000000000000 -0.377945375555 0.221761338834 O -0.869240000000 0.000000000000 0.000000000000 0.269441244000 0.137985614000
energy  -76.36317699282900
charge  0.00000000000000
dipole 0.00000000000000 0.19022355650703 -0.78709668489756
end
begin
comment by xLogML : From amz1.log file, All value are in AU
atom 0.000000000000 1.433486338220 -1.264988841163 H 0.450680000000 0.000000000000 0.000000000000 -0.052683651000 0.065638553000
atom 0.000000000000 -1.433486338220 -0.887043465608 H 0.451850000000 0.000000000000 0.000000000000 -0.009691068000 0.003501103000
atom 0.000000000000 0.000000000000 0.221761338834 O -0.902530000000 0.000000000000 0.000000000000 0.062374719000 -0.069139656000
energy  -76.39975107757300
charge  0.00000000000000
dipole 0.00000000000000 -0.03607755973463 -0.84969144775230
end
begin
comment by xLogML : From amz2.log file, All value are in AU
atom 0.000000000000 1.433486338220 -0.887043465608 H 0.451850000000 0.000000000000 0.000000000000 0.009691068000 0.003501103000
atom 0.000000000000 -1.433486338220 -1.264988841163 H 0.450680000000 0.000000000000 0.000000000000 0.052683651000 0.065638553000
atom 0.000000000000 0.000000000000 0.221761338834 O -0.902530000000 0.000000000000 0.000000000000 -0.062374719000 -0.069139656000
energy  -76.39975107757300
charge  0.00000000000000
dipole 0.00000000000000 0.03607755973463 -0.84969144775230
end
begin
comment by xLogML : From amz3.log file, All value are in AU
atom 0.000000000000 1.433486338220 -0.887043465608 H 0.460650000000 0.000000000000 0.000000000000 0.122707373000 -0.087771679000
atom 0.000000000000 -1.433486338220 -0.887043465608 H 0.460650000000 0.000000000000 0.000000000000 -0.122707373000 -0.087771679000
atom 0.000000000000 0.000000000000 -0.156184036721 O -0.921300000000 0.000000000000 0.000000000000 0.000000000000 0.175543358000
energy  -76.37936746936100
charge  0.00000000000000
dipole 0.00000000000000 0.00000000000000 -0.61355457367677
end
begin
comment by xLogML : From apx1.log file, All value are in AU
atom 0.377945375555 1.433486338220 -0.887043465608 H 0.458220000000 0.000000000000 -0.003986097000 -0.015277932000 0.011583708000
atom 0.000000000000 -1.433486338220 -0.887043465608 H 0.457000000000 0.000000000000 0.000038856000 -0.000216892000 -0.000400024000
atom 0.000000000000 0.000000000000 0.221761338834 O -0.915210000000 0.000000000000 0.003947241000 0.015494823000 -0.011183684000
energy  -76.41290302455000
charge  0.00000000000000
dipole 0.13211389922453 -0.00479984982293 -0.77879530528577
end
begin
comment by xLogML : From apx2.log file, All value are in AU
atom 0.000000000000 1.433486338220 -0.887043465608 H 0.457000000000 0.000000000000 0.000038856000 0.000216892000 -0.000400024000
atom 0.377945375555 -1.433486338220 -0.887043465608 H 0.458220000000 0.000000000000 -0.003986097000 0.015277932000 0.011583708000
atom 0.000000000000 0.000000000000 0.221761338834 O -0.915210000000 0.000000000000 0.003947241000 -0.015494823000 -0.011183684000
energy  -76.41290302455000
charge  0.00000000000000
dipole 0.13211389922453 0.00479984982293 -0.77879530528577
end
begin
comment by xLogML : From apx3.log file, All value are in AU
atom 0.000000000000 1.433486338220 -0.887043465608 H 0.455970000000 0.000000000000 0.004488238000 -0.011659682000 0.013172910000
atom 0.000000000000 -1.433486338220 -0.887043465608 H 0.455970000000 0.000000000000 0.004488238000 0.011659682000 0.013172910000
atom 0.377945375555 0.000000000000 0.221761338834 O -0.911940000000 0.000000000000 -0.008976477000 0.000000000000 -0.026345820000
energy  -76.41241150875700
charge  0.00000000000000
dipole -0.26088364078555 0.00000000000000 -0.76541867463171
end
begin
comment by xLogML : From apy1.log file, All value are in AU
atom 0.000000000000 1.811431713774 -0.887043465608 H 0.469620000000 0.000000000000 0.000000000000 -0.092689665000 0.043121192000
atom 0.000000000000 -1.433486338220 -0.887043465608 H 0.464390000000 0.000000000000 0.000000000000 0.008462453000 -0.010655251000
atom 0.000000000000 0.000000000000 0.221761338834 O -0.934020000000 0.000000000000 0.000000000000 0.084227212000 -0.032465942000
energy  -76.39294492961299
charge  0.00000000000000
dipole 0.00000000000000 0.09528882189453 -0.76109094118481
end
begin
comment by xLogML : From apy2.log file, All value are in AU
atom 0.000000000000 1.433486338220 -0.887043465608 H 0.444370000000 0.000000000000 0.000000000000 0.016390778000 0.012981324000
atom 0.000000000000 -1.055540962665 -0.887043465608 H 0.422450000000 0.000000000000 0.000000000000 -0.202588784000 -0.177967849000