begin
comment by xLogML : From a0.log file, All value are in AU
atom   0.0000000000000000E+00   1.4334863382200000E+00  -8.8704346560799996E-01  H   4.5691999999999999E-01   0.0000000000000000E+00   0.0000000000000000E+00   1.7409999999999999E-06   6.9439999999999999E-06
atom   0.0000000000000000E+00  -1.4334863382200000E+00  -8.8704346560799996E-01  H   4.5691999999999999E-01   0.0000000000000000E+00   0.0000000000000000E+00  -1.7409999999999999E-06   6.9439999999999999E-06
atom   0.0000000000000000E+00   0.0000000000000000E+00   2.2176133883400001E-01  O  -9.1383999999999999E-01   0.0000000000000000E+00   0.0000000000000000E+00   0.0000000000000000E+00  -1.3888000000000000E-05
energy  -7.6413292618113005E+01
dipole   0.0000000000000000E+00   0.0000000000000000E+00  -7.8536559151880003E-01
charge   0.0000000000000000E+00
end
begin
comment by xLogML : From amx1.log file, All value are in AU
atom  -1.8897268778000000E-02   1.4334863382200000E+00  -8.8704346560799996E-01  H   4.5693000000000000E-01   0.0000000000000000E+00   4.0200000000000003E-07  -4.0640999999999999E-05   3.9032000000000002E-05
atom   0.0000000000000000E+00  -1.4334863382200000E+00  -8.8704346560799996E-01  H   4.5691999999999999E-01   0.0000000000000000E+00   3.2800000000000003E-07  -2.3089999999999998E-06   5.9159999999999998E-06
atom   0.0000000000000000E+00   0.0000000000000000E+00   2.2176133883400001E-01  O  -9.1385000000000005E-01   0.0000000000000000E+00  -7.3000000000000000E-07   4.2950000000000000E-05  -4.4947999999999997E-05
energy  -7.6413292616931997E+01
dipole  -6.6883153270299997E-03   0.0000000000000000E+00  -7.8536559151880003E-01
charge   0.0000000000000000E+00
end
begin
comment by xLogML : From amx2.log file, All value are in AU
atom   0.0000000000000000E+00   1.4334863382200000E+00  -8.8704346560799996E-01  H   4.5691999999999999E-01   0.0000000000000000E+00   3.2800000000000003E-07   2.3089999999999998E-06   5.9159999999999998E-06
atom  -1.8897268778000000E-02  -1.4334863382200000E+00  -8.8704346560799996E-01  H   4.5693000000000000E-01   0.0000000000000000E+00   4.0200000000000003E-07   4.0640999999999999E-05   3.9032000000000002E-05
atom   0.0000000000000000E+00   0.0000000000000000E+00   2.2176133883400001E-01  O  -9.1385000000000005E-01   0.0000000000000000E+00  -7.3000000000000000E-07  -4.2950000000000000E-05  -4.4947999999999997E-05
energy  -7.6413292616931997E+01
dipole  -6.6883153270299997E-03   0.0000000000000000E+00  -7.8536559151880003E-01
charge   0.0000000000000000E+00
end
begin
comment by xLogML : From amx3.log file, All value are in AU
atom   0.0000000000000000E+00   1.4334863382200000E+00  -8.8704346560799996E-01  H   4.5691999999999999E-01   0.0000000000000000E+00  -8.0999999999999997E-07  -3.1164999999999997E-05   4.3708000000000002E-05
atom   0.0000000000000000E+00  -1.4334863382200000E+00  -8.8704346560799996E-01  H   4.5691999999999999E-01   0.0000000000000000E+00  -8.0999999999999997E-07   3.1164999999999997E-05   4.3708000000000002E-05
atom  -1.8897268778000000E-02   0.0000000000000000E+00   2.2176133883400001E-01  O  -9.1383999999999999E-01   0.0000000000000000E+00   1.6199999999999999E-06   0.0000000000000000E+00  -8.7416000000000005E-05
energy  -7.6413292608730998E+01
dipole   1.3376630654059999E-02   0.0000000000000000E+00  -7.8532624848746002E-01
charge   0.0000000000000000E+00
end
begin
comment by xLogML : From amy1.log file, All value are in AU
atom   0.0000000000000000E+00   1.4145890694420000E+00  -8.8704346560799996E-01  H   4.5582000000000000E-01   0.0000000000000000E+00   0.0000000000000000E+00   7.2375790000000001E-03  -4.5951750000000000E-03
atom   0.0000000000000000E+00  -1.4334863382200000E+00  -8.8704346560799996E-01  H   4.5639000000000002E-01   0.0000000000000000E+00   0.0000000000000000E+00  -6.0069900000000000E-04   5.9919499999999996E-04
atom   0.0000000000000000E+00   0.0000000000000000E+00   2.2176133883400001E-01  O  -9.1220999999999997E-01   0.0000000000000000E+00   0.0000000000000000E+00  -6.6368800000000004E-03   3.9959799999999997E-03
energy  -7.6413224670272001E+01
dipole   0.0000000000000000E+00  -4.8391928542600004E-03  -7.8650653942753002E-01
charge   0.0000000000000000E+00
end
begin
comment by xLogML : From amy2.log file, All value are in AU
atom   0.0000000000000000E+00   1.4334863382200000E+00  -8.8704346560799996E-01  H   4.5744000000000001E-01   0.0000000000000000E+00   0.0000000000000000E+00  -5.7798200000000000E-04  -5.7964400000000004E-04
atom   0.0000000000000000E+00  -1.4523836069970000E+00  -8.8704346560799996E-01  H   4.5796999999999999E-01   0.0000000000000000E+00   0.0000000000000000E+00   6.9485520000000002E-03   4.2916930000000001E-03
atom   0.0000000000000000E+00   0.0000000000000000E+00   2.2176133883400001E-01  O  -9.1540999999999995E-01   0.0000000000000000E+00   0.0000000000000000E+00  -6.3705699999999999E-03  -3.7120489999999998E-03
energy  -7.6413226534822996E+01
dipole   0.0000000000000000E+00  -4.8391928542600004E-03  -7.8422464361007005E-01
charge   0.0000000000000000E+00
end
begin
comment by xLogML : From amy3.log file, All value are in AU
atom   0.0000000000000000E+00   1.4334863382200000E+00  -8.8704346560799996E-01  H   4.5741999999999999E-01   0.0000000000000000E+00   0.0000000000000000E+00  -6.3687630000000004E-03   4.8768179999999998E-03
atom   0.0000000000000000E+00  -1.4334863382200000E+00  -8.8704346560799996E-01  H   4.5630999999999999E-01   0.0000000000000000E+00   0.0000000000000000E+00  -6.6385550000000000E-03  -5.1888990000000003E-03
atom   0.0000000000000000E+00  -1.8897268778000000E-02   2.2176133883400001E-01  O  -9.1373000000000004E-01   0.0000000000000000E+00   0.0000000000000000E+00   1.3007318000000000E-02   3.1208000000000001E-04
energy  -7.6413169723798006E+01
dipole   0.0000000000000000E+00   9.7177287398599998E-03  -7.8536559151880003E-01
charge   0.0000000000000000E+00
end
begin
comment by xLogML : From amz1.log file, All value are in AU
atom   0.0000000000000000E+00   1.4334863382200000E+00  -9.0594073438599998E-01  H   4.5698000000000000E-01   0.0000000000000000E+00   0.0000000000000000E+00  -4.3330030000000002E-03   4.0823329999999996E-03
atom   0.0000000000000000E+00  -1.4334863382200000E+00  -8.8704346560799996E-01  H   4.5657999999999999E-01   0.0000000000000000E+00   0.0000000000000000E+00  -5.8620700000000005E-04   2.1980099999999999E-04
atom   0.0000000000000000E+00   0.0000000000000000E+00   2.2176133883400001E-01  O  -9.1356000000000004E-01   0.0000000000000000E+00   0.0000000000000000E+00   4.9192089999999999E-03  -4.3021329999999997E-03
energy  -7.6413253883544002E+01
dipole   0.0000000000000000E+00  -1.4556921594099999E-03  -7.8894580737033004E-01
charge   0.0000000000000000E+00
end
begin
comment by xLogML : From amz2.log file, All value are in AU
atom   0.0000000000000000E+00   1.4334863382200000E+00  -8.8704346560799996E-01  H   4.5657999999999999E-01   0.0000000000000000E+00   0.0000000000000000E+00   5.8620700000000005E-04   2.1980099999999999E-04
atom   0.0000000000000000E+00  -1.4334863382200000E+00  -9.0594073438599998E-01  H   4.5698000000000000E-01   0.0000000000000000E+00   0.0000000000000000E+00   4.3330030000000002E-03   4.0823329999999996E-03
atom   0.0000000000000000E+00   0.0000000000000000E+00   2.2176133883400001E-01  O  -9.1356000000000004E-01   0.0000000000000000E+00   0.0000000000000000E+00  -4.9192089999999999E-03  -4.3021329999999997E-03
energy  -7.6413253883544002E+01
dipole   0.0000000000000000E+00   1.4556921594099999E-03  -7.8894580737033004E-01
charge   0.0000000000000000E+00
end
begin
comment by xLogML : From amz3.log file, All value are in AU
atom   0.0000000000000000E+00   1.4334863382200000E+00  -8.8704346560799996E-01  H   4.5717999999999998E-01   0.0000000000000000E+00   0.0000000000000000E+00   3.9575430000000000E-03  -4.3460419999999996E-03
atom   0.0000000000000000E+00  -1.4334863382200000E+00  -8.8704346560799996E-01  H   4.5717999999999998E-01   0.0000000000000000E+00   0.0000000000000000E+00  -3.9575430000000000E-03  -4.3460419999999996E-03
atom   0.0000000000000000E+00   0.0000000000000000E+00   2.0286407005599999E-01  O  -9.1435999999999995E-01   0.0000000000000000E+00   0.0000000000000000E+00   0.0000000000000000E+00   8.6920829999999998E-03
energy  -7.6413210825006999E+01
dipole   0.0000000000000000E+00   0.0000000000000000E+00  -7.7812647375306998E-01
charge   0.0000000000000000E+00
end
begin
comment by xLogML : From apx1.log file, All value are in AU
atom   1.8897268778000000E-02   1.4334863382200000E+00  -8.8704346560799996E-01  H   4.5693000000000000E-01   0.0000000000000000E+00  -4.0200000000000003E-07  -4.0640999999999999E-05   3.9032000000000002E-05
atom   0.0000000000000000E+00  -1.4334863382200000E+00  -8.8704346560799996E-01  H   4.5691999999999999E-01   0.0000000000000000E+00  -3.2800000000000003E-07  -2.3089999999999998E-06   5.9159999999999998E-06
atom   0.0000000000000000E+00   0.0000000000000000E+00   2.2176133883400001E-01  O  -9.1385000000000005E-01   0.0000000000000000E+00   7.3000000000000000E-07   4.2950000000000000E-05  -4.4947999999999997E-05
energy  -7.6413292616931997E+01
dipole   6.6883153270299997E-03   0.0000000000000000E+00  -7.8536559151880003E-01
charge   0.0000000000000000E+00
end
begin
comment by xLogML : From apx2.log file, All value are in AU
atom   0.0000000000000000E+00   1.4334863382200000E+00  -8.8704346560799996E-01  H   4.5691999999999999E-01   0.0000000000000000E+00  -3.2800000000000003E-07   2.3089999999999998E-06   5.9159999999999998E-06
atom   1.8897268778000000E-02  -1.4334863382200000E+00  -8.8704346560799996E-01  H   4.5693000000000000E-01   0.0000000000000000E+00  -4.0200000000000003E-07   4.0640999999999999E-05   3.9032000000000002E-05
atom   0.0000000000000000E+00   0.0000000000000000E+00   2.2176133883400001E-01  O  -9.1385000000000005E-01   0.0000000000000000E+00   7.3000000000000000E-07  -4.2950000000000000E-05  -4.4947999999999997E-05
energy  -7.6413292616931997E+01
dipole   6.6883153270299997E-03   0.0000000000000000E+00  -7.8536559151880003E-01
charge   0.0000000000000000E+00
end
begin
comment by xLogML : From apx3.log file, All value are in AU
atom   0.0000000000000000E+00   1.4334863382200000E+00  -8.8704346560799996E-01  H   4.5691999999999999E-01   0.0000000000000000E+00   8.0999999999999997E-07  -3.1164999999999997E-05   4.3708000000000002E-05
atom   0.0000000000000000E+00  -1.4334863382200000E+00  -8.8704346560799996E-01  H   4.5691999999999999E-01   0.0000000000000000E+00   8.0999999999999997E-07   3.1164999999999997E-05   4.3708000000000002E-05
atom   1.8897268778000000E-02   0.0000000000000000E+00   2.2176133883400001E-01  O  -9.1383999999999999E-01   0.0000000000000000E+00  -1.6199999999999999E-06   0.0000000000000000E+00  -8.7416000000000005E-05
energy  -7.6413292608730998E+01
dipole  -1.3376630654059999E-02   0.0000000000000000E+00  -7.8532624848746002E-01
charge   0.0000000000000000E+00
end
begin
comment by xLogML : From apy1.log file, All value are in AU
atom   0.0000000000000000E+00   1.4523836069970000E+00  -8.8704346560799996E-01  H   4.5796999999999999E-01   0.0000000000000000E+00   0.0000000000000000E+00  -6.9485520000000002E-03   4.2916930000000001E-03
atom   0.0000000000000000E+00  -1.4334863382200000E+00  -8.8704346560799996E-01  H   4.5744000000000001E-01   0.0000000000000000E+00   0.0000000000000000E+00   5.7798200000000000E-04  -5.7964400000000004E-04
atom   0.0000000000000000E+00   0.0000000000000000E+00   2.2176133883400001E-01  O  -9.1540999999999995E-01   0.0000000000000000E+00   0.0000000000000000E+00   6.3705699999999999E-03  -3.7120489999999998E-03
energy  -7.6413226534822996E+01
dipole   0.0000000000000000E+00   4.8391928542600004E-03  -7.8422464361007005E-01
charge   0.0000000000000000E+00
end
begin
comment by xLogML : From apy2.log file, All value are in AU
atom   0.0000000000000000E+00   1.4334863382200000E+00  -8.8704346560799996E-01  H   4.5639000000000002E-01   0.0000000000000000E+00   0.0000000000000000E+00   6.0069900000000000E-04   5.9919499999999996E-04
atom   0.0000000000000000E+00  -1.4145890694420000E+00  -8.8704346560799996E-01  H   4.5582000000000000E-01   0.0000000000000000E+00   0.0000000000000000E+00  -7.2375790000000001E-03  -4.5951750000000000E-03
atom   0.0000000000000000E+00   0.0000000000000000E+00   2.2176133883400001E-01  O  -9.1220999999999997E-01   0.0000000000000000E+00   0.0000000000000000E+00   6.6368800000000004E-03   3.9959799999999997E-03
energy  -7.6413224670272001E+01
dipole   0.0000000000000000E+00   4.8391928542600004E-03  -7.8650653942753002E-01
charge   0.0000000000000000E+00
end
begin
comment by xLogML : From apy3.log file, All value are in AU
atom   0.0000000000000000E+00   1.4334863382200000E+00  -8.8704346560799996E-01  H   4.5630999999999999E-01   0.0000000000000000E+00   0.0000000000000000E+00   6.6385550000000000E-03  -5.1888990000000003E-03
atom   0.0000000000000000E+00  -1.4334863382200000E+00  -8.8704346560799996E-01  H   4.5741999999999999E-01   0.0000000000000000E+00   0.0000000000000000E+00   6.3687630000000004E-03   4.8768179999999998E-03
atom   0.0000000000000000E+00   1.8897268778000000E-02   2.2176133883400001E-01  O  -9.1373000000000004E-01   0.0000000000000000E+00   0.0000000000000000E+00  -1.3007318000000000E-02   3.1208000000000001E-04
energy  -7.6413169723798006E+01
dipole   0.0000000000000000E+00  -9.7177287398599998E-03  -7.8536559151880003E-01
charge   0.0000000000000000E+00
end
begin
comment by xLogML : From apz1.log file, All value are in AU
atom   0.0000000000000000E+00   1.4334863382200000E+00  -8.6814619683000005E-01  H   4.5682000000000000E-01   0.0000000000000000E+00   0.0000000000000000E+00   4.5498010000000000E-03  -4.1269680000000000E-03
atom   0.0000000000000000E+00  -1.4334863382200000E+00  -8.8704346560799996E-01  H   4.5728000000000002E-01   0.0000000000000000E+00   0.0000000000000000E+00   5.9256399999999996E-04  -2.0906399999999999E-04
atom   0.0000000000000000E+00   0.0000000000000000E+00   2.2176133883400001E-01  O  -9.1410000000000002E-01   0.0000000000000000E+00   0.0000000000000000E+00  -5.1423650000000003E-03   4.3360320000000001E-03
energy  -7.6413253777158005E+01
dipole   0.0000000000000000E+00   1.4163491280800001E-03  -7.8174603263593001E-01
charge   0.0000000000000000E+00
end
begin
comment by xLogML : From apz2.log file, All value are in AU
atom   0.0000000000000000E+00   1.4334863382200000E+00  -8.8704346560799996E-01  H   4.5728000000000002E-01   0.0000000000000000E+00   0.0000000000000000E+00  -5.9256399999999996E-04  -2.0906399999999999E-04
atom   0.0000000000000000E+00  -1.4334863382200000E+00  -8.6814619683000005E-01  H   4.5682000000000000E-01   0.0000000000000000E+00   0.0000000000000000E+00  -4.5498010000000000E-03  -4.1269680000000000E-03
atom   0.0000000000000000E+00   0.0000000000000000E+00   2.2176133883400001E-01  O  -9.1410000000000002E-01   0.0000000000000000E+00   0.0000000000000000E+00   5.1423650000000003E-03   4.3360320000000001E-03
energy  -7.6413253777158005E+01
dipole   0.0000000000000000E+00  -1.4163491280800001E-03  -7.8174603263593001E-01
charge   0.0000000000000000E+00
end
begin
comment by xLogML : From apz3.log file, All value are in AU
atom   0.0000000000000000E+00   1.4334863382200000E+00  -8.8704346560799996E-01  H   4.5665000000000000E-01   0.0000000000000000E+00   0.0000000000000000E+00  -3.7467860000000002E-03   4.2919560000000004E-03
atom   0.0000000000000000E+00  -1.4334863382200000E+00  -8.8704346560799996E-01  H   4.5665000000000000E-01   0.0000000000000000E+00   0.0000000000000000E+00   3.7467860000000002E-03   4.2919560000000004E-03
atom   0.0000000000000000E+00   0.0000000000000000E+00   2.4065860761100000E-01  O  -9.1330000000000000E-01   0.0000000000000000E+00   0.0000000000000000E+00   0.0000000000000000E+00  -8.5839120000000008E-03
energy  -7.6413211156871000E+01
dipole   0.0000000000000000E+00   0.0000000000000000E+00  -7.9252602322184995E-01
charge   0.0000000000000000E+00
end
begin
comment by xLogML : From a0.log file, All value are in AU
atom   0.0000000000000000E+00   1.4334863382200000E+00  -8.8704346560799996E-01  H   4.5691999999999999E-01   0.0000000000000000E+00   0.0000000000000000E+00   1.7409999999999999E-06   6.9439999999999999E-06
atom   0.0000000000000000E+00  -1.4334863382200000E+00  -8.8704346560799996E-01  H   4.5691999999999999E-01   0.0000000000000000E+00   0.0000000000000000E+00  -1.7409999999999999E-06   6.9439999999999999E-06
atom   0.0000000000000000E+00   0.0000000000000000E+00   2.2176133883400001E-01  O  -9.1383999999999999E-01   0.0000000000000000E+00   0.0000000000000000E+00   0.0000000000000000E+00  -1.3888000000000000E-05
energy  -7.6413292618113005E+01
dipole   0.0000000000000000E+00   0.0000000000000000E+00  -7.8536559151880003E-01
charge   0.0000000000000000E+00
end
begin
comment by xLogML : From amx1.log file, All value are in AU
atom  -9.4486343888999999E-02   1.4334863382200000E+00  -8.8704346560799996E-01  H   4.5701999999999998E-01   0.0000000000000000E+00   6.7984999999999994E-05  -1.0509980000000000E-03   8.0418700000000004E-04
atom   0.0000000000000000E+00  -1.4334863382200000E+00  -8.8704346560799996E-01  H   4.5693000000000000E-01   0.0000000000000000E+00   9.3900000000000003E-07  -1.5880000000000000E-05  -1.8739000000000001E-05
atom   0.0000000000000000E+00   0.0000000000000000E+00   2.2176133883400001E-01  O  -9.1395000000000004E-01   0.0000000000000000E+00  -6.8924000000000006E-05   1.0668780000000001E-03  -7.8544800000000001E-04
energy  -7.6413291026647997E+01
dipole  -3.3441576635160002E-02  -3.1474425068000003E-04  -7.8497216120544000E-01
charge   0.0000000000000000E+00
end
begin
comment by xLogML : From amx2.log file, All value are in AU
atom   0.0000000000000000E+00   1.4334863382200000E+00  -8.8704346560799996E-01  H   4.5693000000000000E-01   0.0000000000000000E+00   9.3900000000000003E-07   1.5880000000000000E-05  -1.8739000000000001E-05
atom  -9.4486343888999999E-02  -1.4334863382200000E+00  -8.8704346560799996E-01  H   4.5701999999999998E-01   0.0000000000000000E+00   6.7984999999999994E-05   1.0509980000000000E-03   8.0418700000000004E-04
atom   0.0000000000000000E+00   0.0000000000000000E+00   2.2176133883400001E-01  O  -9.1395000000000004E-01   0.0000000000000000E+00  -6.8924000000000006E-05  -1.0668780000000001E-03  -7.8544800000000001E-04
energy  -7.6413291026647997E+01
dipole  -3.3441576635160002E-02   3.1474425068000003E-04  -7.8497216120544000E-01
charge   0.0000000000000000E+00
end
begin
comment by xLogML : From amx3.log file, All value are in AU
atom   0.0000000000000000E+00   1.4334863382200000E+00  -8.8704346560799996E-01  H   4.5685999999999999E-01   0.0000000000000000E+00  -7.8809999999999999E-05  -8.1473899999999998E-04   9.1994199999999998E-04
atom   0.0000000000000000E+00  -1.4334863382200000E+00  -8.8704346560799996E-01  H   4.5685999999999999E-01   0.0000000000000000E+00  -7.8809999999999999E-05   8.1473899999999998E-04   9.1994199999999998E-04
atom  -9.4486343888999999E-02   0.0000000000000000E+00   2.2176133883400001E-01  O  -9.1373000000000004E-01   0.0000000000000000E+00   1.5761900000000001E-04   0.0000000000000000E+00  -1.8398850000000001E-03
energy  -7.6413288843127006E+01
dipole   6.6804467207639995E-02   0.0000000000000000E+00  -7.8406727148472999E-01
charge   0.0000000000000000E+00
end
begin
comment by xLogML : From amy1.log file, All value are in AU
atom   0.0000000000000000E+00   1.3389999943310000E+00  -8.8704346560799996E-01  H   4.5083000000000001E-01   0.0000000000000000E+00   0.0000000000000000E+00   3.9135903000000000E-02  -2.6519734000000000E-02
atom   0.0000000000000000E+00  -1.4334863382200000E+00  -8.8704346560799996E-01  H   4.5413999999999999E-01   0.0000000000000000E+00   0.0000000000000000E+00  -3.1986499999999999E-03   3.0252339999999999E-03
atom   0.0000000000000000E+00   0.0000000000000000E+00   2.2176133883400001E-01  O  -9.0495999999999999E-01   0.0000000000000000E+00   0.0000000000000000E+00  -3.5937253000000002E-02   2.3494498999999999E-02
energy  -7.6411502255773996E+01
dipole   0.0000000000000000E+00  -2.4313993365319999E-02  -7.9107033106243996E-01
charge   0.0000000000000000E+00
end
begin
comment by xLogML : From amy2.log file, All value are in AU
atom   0.0000000000000000E+00   1.4334863382200000E+00  -8.8704346560799996E-01  H   4.5935999999999999E-01   0.0000000000000000E+00   0.0000000000000000E+00  -2.7134980000000000E-03  -2.8695999999999999E-03
atom   0.0000000000000000E+00  -1.5279726821080000E+00  -8.8704346560799996E-01  H   4.6167999999999998E-01   0.0000000000000000E+00   0.0000000000000000E+00   3.2004709999999999E-02   1.8563967000000001E-02
atom   0.0000000000000000E+00   0.0000000000000000E+00   2.2176133883400001E-01  O  -9.2103999999999997E-01   0.0000000000000000E+00   0.0000000000000000E+00  -2.9291212000000000E-02  -1.5694366000000001E-02
energy  -7.6411727218018001E+01
dipole   0.0000000000000000E+00  -2.4195964271320002E-02  -7.7958216591247997E-01
charge   0.0000000000000000E+00
end
begin
comment by xLogML : From amy3.log file, All value are in AU
atom   0.0000000000000000E+00   1.4334863382200000E+00  -8.8704346560799996E-01  H   4.5832000000000001E-01   0.0000000000000000E+00   0.0000000000000000E+00  -2.9281712000000001E-02   2.1405336000000001E-02
atom   0.0000000000000000E+00  -1.4334863382200000E+00  -8.8704346560799996E-01  H   4.5268999999999998E-01   0.0000000000000000E+00   0.0000000000000000E+00  -3.5930634000000003E-02  -2.9574796000000000E-02
atom   0.0000000000000000E+00  -9.4486343888999999E-02   2.2176133883400001E-01  O  -9.1100000000000003E-01   0.0000000000000000E+00   0.0000000000000000E+00   6.5212346000000004E-02   8.1694599999999999E-03
energy  -7.6410216086874001E+01
dipole   0.0000000000000000E+00   4.8470614605309999E-02  -7.8548362061279997E-01
charge   0.0000000000000000E+00
end
begin
comment by xLogML : From amz1.log file, All value are in AU
atom   0.0000000000000000E+00   1.4334863382200000E+00  -9.8152980949699997E-01  H   4.5682000000000000E-01   0.0000000000000000E+00   0.0000000000000000E+00  -1.9624017000000001E-02   1.9694030000000001E-02
atom   0.0000000000000000E+00  -1.4334863382200000E+00  -8.8704346560799996E-01  H   4.5533000000000001E-01   0.0000000000000000E+00   0.0000000000000000E+00  -2.8224060000000000E-03   1.0367340000000001E-03
atom   0.0000000000000000E+00   0.0000000000000000E+00   2.2176133883400001E-01  O  -9.1215000000000002E-01   0.0000000000000000E+00   0.0000000000000000E+00   2.2446424000000000E-02  -2.0730765000000002E-02
energy  -7.6412347828950004E+01
dipole   0.0000000000000000E+00  -7.5932050477499997E-03  -8.0291258349441996E-01
charge   0.0000000000000000E+00
end
begin
comment by xLogML : From amz2.log file, All value are in AU
atom   0.0000000000000000E+00   1.4334863382200000E+00  -8.8704346560799996E-01  H   4.5533000000000001E-01   0.0000000000000000E+00   0.0000000000000000E+00   2.8224060000000000E-03   1.0367340000000001E-03
atom   0.0000000000000000E+00  -1.4334863382200000E+00  -9.8152980949699997E-01  H   4.5682000000000000E-01   0.0000000000000000E+00   0.0000000000000000E+00   1.9624017000000001E-02   1.9694030000000001E-02
atom   0.0000000000000000E+00   0.0000000000000000E+00   2.2176133883400001E-01  O  -9.1215000000000002E-01   0.0000000000000000E+00   0.0000000000000000E+00  -2.2446424000000000E-02  -2.0730765000000002E-02
energy  -7.6412347828950004E+01
dipole   0.0000000000000000E+00   7.5932050477499997E-03  -8.0291258349441996E-01
charge   0.0000000000000000E+00
end
begin
comment by xLogML : From amz3.log file, All value are in AU
atom   0.0000000000000000E+00   1.4334863382200000E+00  -8.8704346560799996E-01  H   4.5811000000000002E-01   0.0000000000000000E+00   0.0000000000000000E+00   2.1950779000000000E-02  -2.2299948999999999E-02
atom   0.0000000000000000E+00  -1.4334863382200000E+00  -8.8704346560799996E-01  H   4.5811000000000002E-01   0.0000000000000000E+00   0.0000000000000000E+00  -2.1950779000000000E-02  -2.2299948999999999E-02
atom   0.0000000000000000E+00   0.0000000000000000E+00   1.2727499494500000E-01  O  -9.1620999999999997E-01   0.0000000000000000E+00   0.0000000000000000E+00   0.0000000000000000E+00   4.4599896999999999E-02
energy  -7.6411206114193007E+01
dipole   0.0000000000000000E+00   0.0000000000000000E+00  -7.4795036871875997E-01
charge   0.0000000000000000E+00
end
begin
comment by xLogML : From apx1.log file, All value are in AU
atom   9.4486343888999999E-02   1.4334863382200000E+00  -8.8704346560799996E-01  H   4.5701999999999998E-01   0.0000000000000000E+00  -6.7984999999999994E-05  -1.0509980000000000E-03   8.0418700000000004E-04
atom   0.0000000000000000E+00  -1.4334863382200000E+00  -8.8704346560799996E-01  H   4.5693000000000000E-01   0.0000000000000000E+00  -9.3900000000000003E-07  -1.5880000000000000E-05  -1.8739000000000001E-05
atom   0.0000000000000000E+00   0.0000000000000000E+00   2.2176133883400001E-01  O  -9.1395000000000004E-01   0.0000000000000000E+00   6.8924000000000006E-05   1.0668780000000001E-03  -7.8544800000000001E-04
energy  -7.6413291026647997E+01
dipole   3.3441576635160002E-02  -3.1474425068000003E-04  -7.8497216120544000E-01
charge   0.0000000000000000E+00
end
begin
comment by xLogML : From apx2.log file, All value are in AU
atom   0.0000000000000000E+00   1.4334863382200000E+00  -8.8704346560799996E-01  H   4.5693000000000000E-01   0.0000000000000000E+00  -9.3900000000000003E-07   1.5880000000000000E-05  -1.8739000000000001E-05
atom   9.4486343888999999E-02  -1.4334863382200000E+00  -8.8704346560799996E-01  H   4.5701999999999998E-01   0.0000000000000000E+00  -6.7984999999999994E-05   1.0509980000000000E-03   8.0418700000000004E-04
atom   0.0000000000000000E+00   0.0000000000000000E+00   2.2176133883400001E-01  O  -9.1395000000000004E-01   0.0000000000000000E+00   6.8924000000000006E-05  -1.0668780000000001E-03  -7.8544800000000001E-04
energy  -7.6413291026647997E+01
dipole   3.3441576635160002E-02   3.1474425068000003E-04  -7.8497216120544000E-01
charge   0.0000000000000000E+00
end
begin
comment by xLogML : From apx3.log file, All value are in AU
atom   0.0000000000000000E+00   1.4334863382200000E+00  -8.8704346560799996E-01  H   4.5685999999999999E-01   0.0000000000000000E+00   7.8809999999999999E-05  -8.1473899999999998E-04   9.1994199999999998E-04
atom   0.0000000000000000E+00  -1.4334863382200000E+00  -8.8704346560799996E-01  H   4.5685999999999999E-01   0.0000000000000000E+00   7.8809999999999999E-05   8.1473899999999998E-04   9.1994199999999998E-04
atom   9.4486343888999999E-02   0.0000000000000000E+00   2.2176133883400001E-01  O  -9.1373000000000004E-01   0.0000000000000000E+00  -1.5761900000000001E-04   0.0000000000000000E+00  -1.8398850000000001E-03
energy  -7.6413288843127006E+01
dipole  -6.6804467207639995E-02   0.0000000000000000E+00  -7.8406727148472999E-01
charge   0.0000000000000000E+00
end
begin
comment by xLogML : From apy1.log file, All value are in AU
atom   0.0000000000000000E+00   1.5279726821080000E+00  -8.8704346560799996E-01  H   4.6167999999999998E-01   0.0000000000000000E+00   0.0000000000000000E+00  -3.2004709999999999E-02   1.8563967000000001E-02
atom   0.0000000000000000E+00  -1.4334863382200000E+00  -8.8704346560799996E-01  H   4.5935999999999999E-01   0.0000000000000000E+00   0.0000000000000000E+00   2.7134980000000000E-03  -2.8695999999999999E-03
atom   0.0000000000000000E+00   0.0000000000000000E+00   2.2176133883400001E-01  O  -9.2103999999999997E-01   0.0000000000000000E+00   0.0000000000000000E+00   2.9291212000000000E-02  -1.5694366000000001E-02
energy  -7.6411727218018001E+01
dipole   0.0000000000000000E+00   2.4195964271320002E-02  -7.7958216591247997E-01
charge   0.0000000000000000E+00
end
begin
comment by xLogML : From apy2.log file, All value are in AU
atom   0.0000000000000000E+00   1.4334863382200000E+00  -8.8704346560799996E-01  H   4.5413999999999999E-01   0.0000000000000000E+00   0.0000000000000000E+00   3.1986499999999999E-03   3.0252339999999999E-03
atom   0.0000000000000000E+00  -1.3389999943310000E+00  -8.8704346560799996E-01  H   4.5083000000000001E-01   0.0000000000000000E+00   0.0000000000000000E+00  -3.9135903000000000E-02  -2.6519734000000000E-02
atom   0.0000000000000000E+00   0.0000000000000000E+00   2.2176133883400001E-01  O  -9.0495999999999999E-01   0.0000000000000000E+00   0.0000000000000000E+00   3.5937253000000002E-02   2.3494498999999999E-02
energy  -7.6411502255773996E+01
dipole   0.0000000000000000E+00   2.4313993365319999E-02  -7.9107033106243996E-01
charge   0.0000000000000000E+00
end
begin
comment by xLogML : From apy3.log file, All value are in AU
atom   0.0000000000000000E+00   1.4334863382200000E+00  -8.8704346560799996E-01  H   4.5268999999999998E-01   0.0000000000000000E+00   0.0000000000000000E+00   3.5930634000000003E-02  -2.9574796000000000E-02
atom   0.0000000000000000E+00  -1.4334863382200000E+00  -8.8704346560799996E-01  H   4.5832000000000001E-01   0.0000000000000000E+00   0.0000000000000000E+00   2.9281712000000001E-02   2.1405336000000001E-02
atom   0.0000000000000000E+00   9.4486343888999999E-02   2.2176133883400001E-01  O  -9.1100000000000003E-01   0.0000000000000000E+00   0.0000000000000000E+00  -6.5212346000000004E-02   8.1694599999999999E-03
energy  -7.6410216086874001E+01
dipole   0.0000000000000000E+00  -4.8470614605309999E-02  -7.8548362061279997E-01
charge   0.0000000000000000E+00
end
begin
comment by xLogML : From apz1.log file, All value are in AU
atom   0.0000000000000000E+00   1.4334863382200000E+00  -7.9255712171899995E-01  H   4.5601000000000003E-01   0.0000000000000000E+00   0.0000000000000000E+00   2.4949408999999999E-02  -2.1125747000000000E-02
atom   0.0000000000000000E+00  -1.4334863382200000E+00  -8.8704346560799996E-01  H   4.5883000000000002E-01   0.0000000000000000E+00   0.0000000000000000E+00   3.0639740000000001E-03  -1.1012769999999999E-03