begin
comment by xLogML : From a0.log file, All value are in AU
atom   0.0000000000000000E+00   1.4334863382200000E+00  -8.8704346560799996E-01  H   4.5691999999999999E-01   0.0000000000000000E+00   0.0000000000000000E+00   2.3319894841646038E-05   6.7630468494166152E-05
atom   0.0000000000000000E+00  -1.4334863382200000E+00  -8.8704346560799996E-01  H   4.5691999999999999E-01   0.0000000000000000E+00   0.0000000000000000E+00  -2.3319894841646038E-05   6.7630468494166152E-05
atom   0.0000000000000000E+00   0.0000000000000000E+00   2.2176133883400001E-01  O  -9.1383999999999999E-01   0.0000000000000000E+00   0.0000000000000000E+00  -3.1658703436576729E-17  -1.3526093698821434E-04
energy  -7.6413208869663492E+01
dipole   0.0000000000000000E+00   0.0000000000000000E+00   0.0000000000000000E+00
charge   0.0000000000000000E+00
end
