begin
comment by xLogML : From amz2.log file, All value are in AU
atom   0.0000000000000000E+00   1.4334863382200000E+00  -8.8704346560799996E-01  H   4.5657999999999999E-01   0.0000000000000000E+00   0.0000000000000000E+00   5.8620700000000005E-04   2.1980099999999999E-04
atom   0.0000000000000000E+00  -1.4334863382200000E+00  -9.0594073438599998E-01  H   4.5698000000000000E-01   0.0000000000000000E+00   0.0000000000000000E+00   4.3330030000000002E-03   4.0823329999999996E-03
atom   0.0000000000000000E+00   0.0000000000000000E+00   2.2176133883400001E-01  O  -9.1356000000000004E-01   0.0000000000000000E+00   0.0000000000000000E+00  -4.9192089999999999E-03  -4.3021329999999997E-03
energy  -7.6413253883544002E+01
dipole   0.0000000000000000E+00   1.4556921594099999E-03  -7.8894580737033004E-01
charge   0.0000000000000000E+00
end
begin
comment by xLogML : From apx2.log file, All value are in AU
atom   0.0000000000000000E+00   1.4334863382200000E+00  -8.8704346560799996E-01  H   4.5691999999999999E-01   0.0000000000000000E+00  -3.2800000000000003E-07   2.3089999999999998E-06   5.9159999999999998E-06
atom   1.8897268778000000E-02  -1.4334863382200000E+00  -8.8704346560799996E-01  H   4.5693000000000000E-01   0.0000000000000000E+00  -4.0200000000000003E-07   4.0640999999999999E-05   3.9032000000000002E-05
atom   0.0000000000000000E+00   0.0000000000000000E+00   2.2176133883400001E-01  O  -9.1385000000000005E-01   0.0000000000000000E+00   7.3000000000000000E-07  -4.2950000000000000E-05  -4.4947999999999997E-05
energy  -7.6413292616931997E+01
dipole   6.6883153270299997E-03   0.0000000000000000E+00  -7.8536559151880003E-01
charge   0.0000000000000000E+00
end
begin
comment by xLogML : From amy3.log file, All value are in AU
atom   0.0000000000000000E+00   1.4334863382200000E+00  -8.8704346560799996E-01  H   4.5832000000000001E-01   0.0000000000000000E+00   0.0000000000000000E+00  -2.9281712000000001E-02   2.1405336000000001E-02
atom   0.0000000000000000E+00  -1.4334863382200000E+00  -8.8704346560799996E-01  H   4.5268999999999998E-01   0.0000000000000000E+00   0.0000000000000000E+00  -3.5930634000000003E-02  -2.9574796000000000E-02
atom   0.0000000000000000E+00  -9.4486343888999999E-02   2.2176133883400001E-01  O  -9.1100000000000003E-01   0.0000000000000000E+00   0.0000000000000000E+00   6.5212346000000004E-02   8.1694599999999999E-03
energy  -7.6410216086874001E+01
dipole   0.0000000000000000E+00   4.8470614605309999E-02  -7.8548362061279997E-01
charge   0.0000000000000000E+00
end
begin
comment by xLogML : From apx2.log file, All value are in AU
atom   0.0000000000000000E+00   1.4334863382200000E+00  -8.8704346560799996E-01  H   4.5693000000000000E-01   0.0000000000000000E+00  -9.3900000000000003E-07   1.5880000000000000E-05  -1.8739000000000001E-05
atom   9.4486343888999999E-02  -1.4334863382200000E+00  -8.8704346560799996E-01  H   4.5701999999999998E-01   0.0000000000000000E+00  -6.7984999999999994E-05   1.0509980000000000E-03   8.0418700000000004E-04
atom   0.0000000000000000E+00   0.0000000000000000E+00   2.2176133883400001E-01  O  -9.1395000000000004E-01   0.0000000000000000E+00   6.8924000000000006E-05  -1.0668780000000001E-03  -7.8544800000000001E-04
energy  -7.6413291026647997E+01
dipole   3.3441576635160002E-02   3.1474425068000003E-04  -7.8497216120544000E-01
charge   0.0000000000000000E+00
end
begin
comment by xLogML : From apy2.log file, All value are in AU
atom   0.0000000000000000E+00   1.4334863382200000E+00  -8.8704346560799996E-01  H   4.5413999999999999E-01   0.0000000000000000E+00   0.0000000000000000E+00   3.1986499999999999E-03   3.0252339999999999E-03
atom   0.0000000000000000E+00  -1.3389999943310000E+00  -8.8704346560799996E-01  H   4.5083000000000001E-01   0.0000000000000000E+00   0.0000000000000000E+00  -3.9135903000000000E-02  -2.6519734000000000E-02
atom   0.0000000000000000E+00   0.0000000000000000E+00   2.2176133883400001E-01  O  -9.0495999999999999E-01   0.0000000000000000E+00   0.0000000000000000E+00   3.5937253000000002E-02   2.3494498999999999E-02
energy  -7.6411502255773996E+01
dipole   0.0000000000000000E+00   2.4313993365319999E-02  -7.9107033106243996E-01
charge   0.0000000000000000E+00
end
begin
comment by xLogML : From apy1.log file, All value are in AU
atom   0.0000000000000000E+00   1.8114317137739999E+00  -8.8704346560799996E-01  H   4.6961999999999998E-01   0.0000000000000000E+00   0.0000000000000000E+00  -9.2689665000000004E-02   4.3121192000000003E-02
atom   0.0000000000000000E+00  -1.4334863382200000E+00  -8.8704346560799996E-01  H   4.6439000000000002E-01   0.0000000000000000E+00   0.0000000000000000E+00   8.4624530000000000E-03  -1.0655250999999999E-02
atom   0.0000000000000000E+00   0.0000000000000000E+00   2.2176133883400001E-01  O  -9.3401999999999996E-01   0.0000000000000000E+00   0.0000000000000000E+00   8.4227211999999996E-02  -3.2465941999999998E-02
energy  -7.6392944929612995E+01
dipole   0.0000000000000000E+00   9.5288821894530001E-02  -7.6109094118481002E-01
charge   0.0000000000000000E+00
end
begin
comment by xLogML : From apy1.log file, All value are in AU
atom   0.0000000000000000E+00   2.0004044015520002E+00  -8.8704346560799996E-01  H   4.7053000000000000E-01   0.0000000000000000E+00   0.0000000000000000E+00  -1.1140978000000000E-01   4.4992707000000000E-02
atom   0.0000000000000000E+00  -1.4334863382200000E+00  -8.8704346560799996E-01  H   4.6586000000000000E-01   0.0000000000000000E+00   0.0000000000000000E+00   1.0691635000000000E-02  -1.5119913000000000E-02
atom   0.0000000000000000E+00   0.0000000000000000E+00   2.2176133883400001E-01  O  -9.3637999999999999E-01   0.0000000000000000E+00   0.0000000000000000E+00   1.0071814500000000E-01  -2.9872794000000001E-02
energy  -7.6373446243125002E+01
dipole   0.0000000000000000E+00   1.4006119155430000E-01  -7.4747825234273002E-01
charge   0.0000000000000000E+00
end
begin
comment by xLogML : From apz1.log file, All value are in AU
atom   0.0000000000000000E+00   1.4334863382200000E+00  -3.2012540227600000E-01  H   4.4037999999999999E-01   0.0000000000000000E+00   0.0000000000000000E+00   2.2913595600000000E-01  -1.0936756400000000E-01
atom   0.0000000000000000E+00  -1.4334863382200000E+00  -8.8704346560799996E-01  H   4.7558000000000000E-01   0.0000000000000000E+00   0.0000000000000000E+00   2.0645637000000001E-02  -6.7759159999999999E-03
atom   0.0000000000000000E+00   0.0000000000000000E+00   2.2176133883400001E-01  O  -9.1596000000000000E-01   0.0000000000000000E+00   0.0000000000000000E+00  -2.4978159200000000E-01   1.1614347999999999E-01
energy  -7.6378704965335999E+01
dipole   0.0000000000000000E+00   2.4077935177310002E-02  -6.6060883915400004E-01
charge   0.0000000000000000E+00
end
