 Entering Gaussian System, Link 0=/opt/local/Softwares/G09DSrc-Corr5/g09/g09
 Initial command:
 /opt/local/Softwares/G09DSrc-Corr5/g09/l1.exe "/tmp/allouche/30639/Gau-3877.inp" -scrdir="/tmp/allouche/30639/"
 Entering Link 1 = /opt/local/Softwares/G09DSrc-Corr5/g09/l1.exe PID=      3879.
  
 Copyright (c) 1988,1990,1992,1993,1995,1998,2003,2009,2013,
            Gaussian, Inc.  All Rights Reserved.
  
 This is part of the Gaussian(R) 09 program.  It is based on
 the Gaussian(R) 03 system (copyright 2003, Gaussian, Inc.),
 the Gaussian(R) 98 system (copyright 1998, Gaussian, Inc.),
 the Gaussian(R) 94 system (copyright 1995, Gaussian, Inc.),
 the Gaussian 92(TM) system (copyright 1992, Gaussian, Inc.),
 the Gaussian 90(TM) system (copyright 1990, Gaussian, Inc.),
 the Gaussian 88(TM) system (copyright 1988, Gaussian, Inc.),
 the Gaussian 86(TM) system (copyright 1986, Carnegie Mellon
 University), and the Gaussian 82(TM) system (copyright 1983,
 Carnegie Mellon University). Gaussian is a federally registered
 trademark of Gaussian, Inc.
  
 This software contains proprietary and confidential information,
 including trade secrets, belonging to Gaussian, Inc.
  
 This software is provided under written license and may be
 used, copied, transmitted, or stored only in accord with that
 written license.
  
 The following legend is applicable only to US Government
 contracts under FAR:
  
                    RESTRICTED RIGHTS LEGEND
  
 Use, reproduction and disclosure by the US Government is
 subject to restrictions as set forth in subparagraphs (a)
 and (c) of the Commercial Computer Software - Restricted
 Rights clause in FAR 52.227-19.
  
 Gaussian, Inc.
 340 Quinnipiac St., Bldg. 40, Wallingford CT 06492
  
  
 ---------------------------------------------------------------
 Warning -- This program may not be used in any manner that
 competes with the business of Gaussian, Inc. or will provide
 assistance to any competitor of Gaussian, Inc.  The licensee
 of this program is prohibited from giving any competitor of
 Gaussian, Inc. access to this program.  By using this program,
 the user acknowledges that Gaussian, Inc. is engaged in the
 business of creating and licensing software in the field of
 computational chemistry and represents and warrants to the
 licensee that it is not a competitor of Gaussian, Inc. and that
 it will not use this program in any manner prohibited above.
 ---------------------------------------------------------------
  

 Cite this work as:
 Gaussian 09, Revision D.01,
 M. J. Frisch, G. W. Trucks, H. B. Schlegel, G. E. Scuseria, 
 M. A. Robb, J. R. Cheeseman, G. Scalmani, V. Barone, B. Mennucci, 
 G. A. Petersson, H. Nakatsuji, M. Caricato, X. Li, H. P. Hratchian, 
 A. F. Izmaylov, J. Bloino, G. Zheng, J. L. Sonnenberg, M. Hada, 
 M. Ehara, K. Toyota, R. Fukuda, J. Hasegawa, M. Ishida, T. Nakajima, 
 Y. Honda, O. Kitao, H. Nakai, T. Vreven, J. A. Montgomery, Jr., 
 J. E. Peralta, F. Ogliaro, M. Bearpark, J. J. Heyd, E. Brothers, 
 K. N. Kudin, V. N. Staroverov, T. Keith, R. Kobayashi, J. Normand, 
 K. Raghavachari, A. Rendell, J. C. Burant, S. S. Iyengar, J. Tomasi, 
 M. Cossi, N. Rega, J. M. Millam, M. Klene, J. E. Knox, J. B. Cross, 
 V. Bakken, C. Adamo, J. Jaramillo, R. Gomperts, R. E. Stratmann, 
 O. Yazyev, A. J. Austin, R. Cammi, C. Pomelli, J. W. Ochterski, 
 R. L. Martin, K. Morokuma, V. G. Zakrzewski, G. A. Voth, 
 P. Salvador, J. J. Dannenberg, S. Dapprich, A. D. Daniels, 
 O. Farkas, J. B. Foresman, J. V. Ortiz, J. Cioslowski, 
 and D. J. Fox, Gaussian, Inc., Wallingford CT, 2013.
 
 ******************************************
 Gaussian 09:  EM64L-G09RevD.01 24-Apr-2013
                16-Apr-2020 
 ******************************************
 ------------------------------------------------------
 # B2PLYP/def2tzvpp nosym scf(tight) Freq # iop(7/33=1)
 ------------------------------------------------------
 1/10=4,30=1,38=1/1,3;
 2/12=2,15=1,17=6,18=5,40=1/2;
 3/5=44,7=202,11=9,16=1,25=1,30=1,71=2,74=-47,140=1/1,2,3;
 4//1;
 5/5=2,32=2,38=5,98=1/2;
 8/6=3,8=1,10=1,19=11,30=-1/1;
 9/15=3,16=-3/6;
 11/6=1,8=1,15=11,17=12,24=-1,27=1,28=-2,29=300,31=1,32=6,42=3/1,2,10;
 10/6=2,21=1,31=1/2;
 8/6=4,8=1,10=1,19=11,30=-1/11,4;
 10/5=1,20=4,31=1/2;
 11/12=2,14=11,16=1,17=2,28=-2,31=1,42=3/2,10,12;
 6/7=2,8=2,9=2,10=2/1;
 7/8=1,10=1,12=2,25=1,30=1,33=1,44=2/1,2,3,16;
 1/10=4,30=1/3;
 99//99;
 -----
 xPert
 -----
 Symbolic Z-matrix:
 Charge =  0 Multiplicity = 1
 H                     0.        0.75857  -0.4694 
 H                     0.       -0.75857  -0.4694 
 O                     0.        0.        0.11735 
 

 GradGradGradGradGradGradGradGradGradGradGradGradGradGradGradGradGradGrad
 Berny optimization.
 Initialization pass.
 Trust Radius=3.00D-01 FncErr=1.00D-07 GrdErr=1.00D-07
 Number of steps in this run=      2 maximum allowed number of steps=      2.
 GradGradGradGradGradGradGradGradGradGradGradGradGradGradGradGradGradGrad

                          Input orientation:                          
 ---------------------------------------------------------------------
 Center     Atomic      Atomic             Coordinates (Angstroms)
 Number     Number       Type             X           Y           Z
 ---------------------------------------------------------------------
      1          1           0        0.000000    0.758568   -0.469403
      2          1           0        0.000000   -0.758568   -0.469403
      3          8           0        0.000000    0.000000    0.117351
 ---------------------------------------------------------------------
                    Distance matrix (angstroms):
                    1          2          3
     1  H    0.000000
     2  H    1.517136   0.000000
     3  O    0.959013   0.959013   0.000000
 Symmetry turned off by external request.
 Stoichiometry    H2O
 Framework group  C2V[C2(O),SGV(H2)]
 Deg. of freedom     2
 Full point group                 C2V     NOp   4
 Rotational constants (GHZ):    820.0405774    435.7255441    284.5375589
 Standard basis: def2TZVPP (5D, 7F)
    59 basis functions,    85 primitive gaussians,    66 cartesian basis functions
     5 alpha electrons        5 beta electrons
       nuclear repulsion energy         9.1774985423 Hartrees.
 NAtoms=    3 NActive=    3 NUniq=    3 SFac= 1.00D+00 NAtFMM=   60 NAOKFM=F Big=F
 Integral buffers will be    131072 words long.
 Regular integral format.
 Two-electron integral symmetry is turned off.
 One-electron integrals computed using PRISM.
   1 Symmetry operations used in ECPInt.
 ECPInt:  NShTT=     276 NPrTT=     694 LenC2=     277 LenP2D=     681.
 LDataN:  DoStor=T MaxTD1= 6 Len=  172
 NBasis=    59 RedAO= T EigKep=  2.26D-03  NBF=    59
 NBsUse=    59 1.00D-06 EigRej= -1.00D+00 NBFU=    59
 ExpMin= 1.03D-01 ExpMax= 2.70D+04 ExpMxC= 9.22D+02 IAcc=1 IRadAn=         1 AccDes= 0.00D+00
 Harris functional with IExCor=  419 and IRadAn=       1 diagonalized for initial guess.
 HarFok:  IExCor=  419 AccDes= 0.00D+00 IRadAn=         1 IDoV= 1 UseB2=F ITyADJ=14
 ICtDFT=  3500011 ScaDFX=  1.000000  1.000000  1.000000  1.000000
 FoFCou: FMM=F IPFlag=           0 FMFlag=      100000 FMFlg1=           0
         NFxFlg=           0 DoJE=T BraDBF=F KetDBF=T FulRan=T
         wScrn=  0.000000 ICntrl=     500 IOpCl=  0 I1Cent=   200000004 NGrid=           0
         NMat0=    1 NMatS0=      1 NMatT0=    0 NMatD0=    1 NMtDS0=    0 NMtDT0=    0
 Symmetry not used in FoFCou.
 Keep R1 ints in memory in canonical form, NReq=3557649.
 Requested convergence on RMS density matrix=1.00D-08 within 128 cycles.
 Requested convergence on MAX density matrix=1.00D-06.
 Requested convergence on             energy=1.00D-06.
 No special actions if energy rises.
 Integral accuracy reduced to 1.0D-05 until final iterations.
 Initial convergence to 1.0D-05 achieved.  Increase integral accuracy.
 SCF Done:  E(RB2PLYP) =  -76.3297601427     A.U. after   10 cycles
            NFock= 10  Conv=0.35D-08     -V/T= 2.0025
 DoSCS=T DFT=T ScalE2(SS,OS)=  0.270000  0.270000
 ExpMin= 1.03D-01 ExpMax= 2.70D+04 ExpMxC= 9.22D+02 IAcc=3 IRadAn=         5 AccDes= 0.00D+00
 HarFok:  IExCor=  205 AccDes= 0.00D+00 IRadAn=         5 IDoV=-2 UseB2=F ITyADJ=14
 ICtDFT= 12500011 ScaDFX=  1.000000  1.000000  1.000000  1.000000
 Range of M.O.s used for correlation:     2    59
 NBasis=    59 NAE=     5 NBE=     5 NFC=     1 NFV=     0
 NROrb=     58 NOA=     4 NOB=     4 NVA=    54 NVB=    54
 DoSCS=T DFT=T ScalE2(SS,OS)=  0.270000  0.270000
 Disk-based method using ON**2 memory for  4 occupieds at a time.
 Permanent disk used for amplitudes=       87210 words.
 Estimated scratch disk usage=     2667893 words.
 Actual    scratch disk usage=     2667893 words.
 JobTyp=1 Pass  1:  I=   2 to   5 NPSUse=  1 ParTrn=F ParDer=F DoDerP=T.
 (rs|ai) integrals will be sorted in core.
 Spin components of T(2) and E(2):
     alpha-alpha T2 =       0.1162631871D-01 E2=     -0.1022051299D-01
     alpha-beta  T2 =       0.6750340761D-01 E2=     -0.6309144948D-01
     beta-beta   T2 =       0.1162631871D-01 E2=     -0.1022051299D-01
 E2(B2PLYP) =    -0.8353247546D-01 E(B2PLYP) =    -0.76413292618113D+02
   1 Symmetry operations used in ECPInt.
 ECPInt:  NShTT=     276 NPrTT=     694 LenC2=     277 LenP2D=     681.
 LDataN:  DoStor=T MaxTD1= 7 Len=  274
 G2DrvN: will do     4 centers at a time, making    1 passes.
 Calling FoFCou, ICntrl=  3107 FMM=F I1Cent=   0 AccDes= 0.00D+00.
 End of G2Drv F.D. properties file   721 does not exist.
 End of G2Drv F.D. properties file   722 does not exist.
 End of G2Drv F.D. properties file   788 does not exist.
          IDoAtm=111
          Differentiating once with respect to electric field.
                with respect to dipole field.
          Differentiating once with respect to nuclear coordinates.
 Keep R1 ints in memory in canonical form, NReq=3533973.
          There are    12 degrees of freedom in the 1st order CPHF.  IDoFFX=6 NUNeed=    12.
      9 vectors produced by pass  0 Test12= 2.25D-15 8.33D-09 XBig12= 2.54D+00 9.74D-01.
 AX will form     9 AO Fock derivatives at one time.
      9 vectors produced by pass  1 Test12= 2.25D-15 8.33D-09 XBig12= 2.66D-01 2.48D-01.
      9 vectors produced by pass  2 Test12= 2.25D-15 8.33D-09 XBig12= 6.66D-03 3.65D-02.
      9 vectors produced by pass  3 Test12= 2.25D-15 8.33D-09 XBig12= 4.83D-05 2.18D-03.
      9 vectors produced by pass  4 Test12= 2.25D-15 8.33D-09 XBig12= 3.88D-07 2.36D-04.
      8 vectors produced by pass  5 Test12= 2.25D-15 8.33D-09 XBig12= 6.68D-10 9.46D-06.
      3 vectors produced by pass  6 Test12= 2.25D-15 8.33D-09 XBig12= 1.61D-12 4.28D-07.
      1 vectors produced by pass  7 Test12= 2.25D-15 8.33D-09 XBig12= 4.17D-15 2.59D-08.
 InvSVY:  IOpt=1 It=  1 EMax= 6.66D-16
 Solved reduced A of dimension    57 with     9 vectors.
 End of Minotr F.D. properties file   721 does not exist.
 End of Minotr F.D. properties file   722 does not exist.
 End of Minotr F.D. properties file   788 does not exist.
 MDV=    33554432.
 DoSCS=T DFT=T ScalE2(SS,OS)=  0.270000  0.270000
 Form MO integral derivatives with frozen-active canonical formalism.
 Discarding MO integrals.
 Reordered first order wavefunction length =       145800
 In DefCFB: NBatch=  1 ICI=  5 ICA= 54 LFMax= 27
            Large arrays: LIAPS=     4205520 LIARS=     4490640 words.
 Semi-Direct transformation.
 ModeAB=           2 MOrb=             5 LenV=      33285755
 LASXX=       476335 LTotXX=      476335 LenRXX=      476335
 LTotAB=      500400 MaxLAS=      652245 LenRXY=      652245
 NonZer=      952670 LenScr=     2142720 LnRSAI=           0
 LnScr1=           0 LExtra=           0 Total=      3271300
 MaxDsk=          -1 SrtSym=           F ITran=            4
 JobTyp=0 Pass  1:  I=   1 to   5.
 (rs|ai) integrals will be sorted in core.
 DoSCS=T DFT=T ScalE2(SS,OS)=  0.270000  0.270000
 Spin components of T(2) and E(2):
     alpha-alpha T2 =       0.1162631871D-01 E2=     -0.1022051299D-01
     alpha-beta  T2 =       0.6750340761D-01 E2=     -0.6309144948D-01
     beta-beta   T2 =       0.1162631871D-01 E2=     -0.1022051299D-01
 E2(B2PLYP) =    -0.8353247546D-01 E(B2PLYP) =    -0.76413292618113D+02
          IDoAtm=111
          Differentiating once with respect to electric field.
                with respect to dipole field.
          Differentiating once with respect to nuclear coordinates.
 Keep R1 ints in memory in canonical form, NReq=3533351.
          There are     1 degrees of freedom in the 1st order CPHF.  IDoFFX=0 NUNeed=     1.
 LinEq1:  Iter=  0 NonCon=     1 RMS=1.89D-03 Max=1.54D-02 NDo=     1
 AX will form     1 AO Fock derivatives at one time.
 LinEq1:  Iter=  1 NonCon=     1 RMS=2.02D-04 Max=1.61D-03 NDo=     1
 LinEq1:  Iter=  2 NonCon=     1 RMS=5.49D-05 Max=4.55D-04 NDo=     1
 LinEq1:  Iter=  3 NonCon=     1 RMS=2.45D-05 Max=1.32D-04 NDo=     1
 LinEq1:  Iter=  4 NonCon=     1 RMS=5.85D-06 Max=3.52D-05 NDo=     1
 LinEq1:  Iter=  5 NonCon=     1 RMS=3.79D-07 Max=3.24D-06 NDo=     1
 LinEq1:  Iter=  6 NonCon=     1 RMS=5.41D-08 Max=4.93D-07 NDo=     1
 LinEq1:  Iter=  7 NonCon=     1 RMS=4.16D-09 Max=3.27D-08 NDo=     1
 LinEq1:  Iter=  8 NonCon=     1 RMS=1.83D-10 Max=1.51D-09 NDo=     1
 LinEq1:  Iter=  9 NonCon=     0 RMS=1.35D-11 Max=1.01D-10 NDo=     1
 Linear equations converged to 1.000D-10 1.000D-09 after     9 iterations.
 End of Minotr F.D. properties file   721 does not exist.
 End of Minotr F.D. properties file   722 does not exist.
 End of Minotr F.D. properties file   788 does not exist.
 Symmetrizing basis deriv contribution to polar:
 IMax=3 JMax=2 DiffMx= 0.00D+00
 G2DrvN: will do     4 centers at a time, making    1 passes.
 Calling FoFCou, ICntrl=  3107 FMM=F I1Cent=   0 AccDes= 0.00D+00.
 End of G2Drv F.D. properties file   721 does not exist.
 End of G2Drv F.D. properties file   722 does not exist.
 End of G2Drv F.D. properties file   788 does not exist.
 DoSCS=T DFT=T ScalE2(SS,OS)=  0.270000  0.270000
 R2 and R3 integrals will be kept in memory, NReq=     6830732.
 DD1Dir will call FoFMem   1 times, MxPair=        40
 NAB=    15 NAA=    10 NBB=     0.
 Discarding MO integrals.

 **********************************************************************

            Population analysis using the SCF density.

 **********************************************************************

 Alpha  occ. eigenvalues --  -19.72551  -1.15305  -0.60904  -0.47085  -0.39615
 Alpha virt. eigenvalues --    0.06024   0.13542   0.42539   0.46145   0.48808
 Alpha virt. eigenvalues --    0.49412   0.60720   0.62585   0.71746   0.74953
 Alpha virt. eigenvalues --    0.84264   1.07866   1.24545   1.30709   1.80238
 Alpha virt. eigenvalues --    1.86150   1.89778   1.91600   1.98863   2.21783
 Alpha virt. eigenvalues --    2.51052   2.70745   2.86325   3.17903   3.28142
 Alpha virt. eigenvalues --    3.39169   3.41029   3.43364   3.49822   3.66748
 Alpha virt. eigenvalues --    3.70131   3.76767   3.77078   4.12103   4.22379
 Alpha virt. eigenvalues --    4.22545   4.28216   4.74169   4.77847   4.92493
 Alpha virt. eigenvalues --    5.10660   5.77808   6.31457   6.59879   6.62382
 Alpha virt. eigenvalues --    6.70887   6.73158   6.78542   6.95797   7.07120
 Alpha virt. eigenvalues --    7.57150   7.59287   7.81596  44.15141
          Condensed to atoms (all electrons):
               1          2          3
     1  H    0.478175  -0.028267   0.337729
     2  H   -0.028267   0.478175   0.337729
     3  O    0.337729   0.337729   7.749267
 Mulliken charges:
               1
     1  H    0.212363
     2  H    0.212363
     3  O   -0.424726
 Sum of Mulliken charges =   0.00000
 Mulliken charges with hydrogens summed into heavy atoms:
               1
     3  O    0.000000
 APT charges:
               1
     1  H    0.254629
     2  H    0.254629
     3  O   -0.509259
 Sum of APT charges =   0.00000
 APT charges with hydrogens summed into heavy atoms:
               1
     3  O    0.000000
 Electronic spatial extent (au):  <R**2>=             19.4677
 Charge=             -0.00000000000001 electrons
 Dipole moment (field-independent basis, Debye):
    X=              0.00000000000000    Y=              0.00000000000001    Z=             -1.99622626951239  Tot=              1.99622626951239
 Quadrupole moment (field-independent basis, Debye-Ang):
   XX=             -7.46998516295751   YY=             -4.30269606747146   ZZ=             -6.23840413164263
   XY=              0.00000000000000   XZ=              0.00000000000000   YZ=              0.00000000000001
 Traceless Quadrupole moment (field-independent basis, Debye-Ang):
   XX=             -1.46629004226698   YY=              1.70099905321908   ZZ=             -0.23470901095210
   XY=              0.00000000000000   XZ=              0.00000000000000   YZ=              0.00000000000001
 Octapole moment (field-independent basis, Debye-Ang**2):
  XXX=              0.00000000000000  YYY=              0.00000000000000  ZZZ=             -1.19629135955274  XYY=              0.00000000000000
  XXY=             -0.00000000000001  XXZ=             -0.30236945141454  XZZ=              0.00000000000000  YZZ=              0.00000000000000
  YYZ=             -1.33596793006205  XYZ=              0.00000000000000
 Hexadecapole moment (field-independent basis, Debye-Ang**3):
 XXXX=             -6.20775063456505 YYYY=             -6.09784669012728 ZZZZ=             -7.01676995987046 XXXY=              0.00000000000000
 XXXZ=              0.00000000000000 YYYX=              0.00000000000000 YYYZ=              0.00000000000002 ZZZX=              0.00000000000000
 ZZZY=              0.00000000000003 XXYY=             -2.36457577472402 XXZZ=             -2.25843763570892 YYZZ=             -1.84762876529193
 XXYZ=              0.00000000000001 YYXZ=              0.00000000000000 ZZXY=              0.00000000000000
 N-N= 9.177498542324D+00 E-N=-1.992261582025D+02  KE= 7.613643711361D+01
  Exact polarizability:   5.993   0.000   8.553   0.000   0.000   7.507
 Approx polarizability:   5.592   0.000   8.861   0.000   0.000   7.632
 Use density number 2.
 Entering OneElI...
 Calculate overlap and kinetic energy integrals
    NBasis =  66  MinDer = 2  MaxDer = 2
 Requested accuracy = 0.1000D-12
 PrsmSu:  NPrtUS=   1 ThrOK=F IAlg=1 NPAlg=1 LenDen=           0.
 Prism:   IPart=     0 DynPar=F LinDyn=F Incr=           2.
 PRISM was handed    33516473 working-precision words and   276 shell-pairs
 IPart=  0 NShTot=         276 NBatch=          36 AvBLen=         7.7
 PrSmSu:  NxtVal=              3.
 Entering OneElI...
 Calculate potential energy integrals
    NBasis =  66  MinDer = 2  MaxDer = 2
 Requested accuracy = 0.1000D-12
 PrsmSu:  NPrtUS=   1 ThrOK=F IAlg=1 NPAlg=1 LenDen=           0.
 Prism:   IPart=     0 DynPar=F LinDyn=F Incr=           8.
 PRISM was handed    33520851 working-precision words and   276 shell-pairs
 IPart=  0 NShTot=         828 NBatch=         276 AvBLen=         3.0
 PrSmSu:  NxtVal=              9.
   1 Symmetry operations used in ECPInt.
 ECPInt:  NShTT=     276 NPrTT=     694 LenC2=     277 LenP2D=     681.
 LDataN:  DoStor=F MaxTD1= 8 Len=  415
 LDataN:  DoStor=T MaxTD1= 8 Len=  415
 ECPSu:  NPrtUS=   1 ThrOK=F
 Polarizability after L701:
                1             2             3 
      1  0.599321D+01
      2  0.000000D+00  0.855283D+01
      3  0.000000D+00  0.000000D+00  0.750692D+01
 Dipole Derivatives after L701:
                 1             2             3             4             5 
      1   0.345818D+00  0.000000D+00  0.000000D+00  0.345818D+00  0.000000D+00
      2   0.000000D+00  0.245607D+00  0.775149D-01  0.000000D+00  0.245607D+00
      3   0.000000D+00  0.665961D-01  0.172463D+00  0.000000D+00 -0.665961D-01
                 6             7             8             9 
      1   0.000000D+00 -0.691636D+00  0.000000D+00  0.000000D+00
      2  -0.775149D-01  0.000000D+00 -0.491215D+00  0.000000D+00
      3   0.172463D+00  0.000000D+00  0.000000D+00 -0.344926D+00
 Hessian after L701:
                1             2             3             4             5 
      1  0.360341D+01
      2  0.000000D+00  0.148572D+01
      3  0.000000D+00  0.153149D+01  0.233505D+01
      4  0.129009D-01  0.000000D+00  0.000000D+00  0.360341D+01
      5  0.000000D+00 -0.801541D-01 -0.580831D-01  0.000000D+00  0.148572D+01
      6  0.000000D+00  0.580831D-01  0.309000D-01  0.000000D+00 -0.153149D+01
      7 -0.361632D+01  0.000000D+00  0.000000D+00 -0.361632D+01  0.000000D+00
      8  0.000000D+00 -0.140556D+01 -0.147340D+01  0.000000D+00 -0.140556D+01
      9  0.000000D+00 -0.158957D+01 -0.236595D+01  0.000000D+00  0.158957D+01
                6             7             8             9 
      6  0.233505D+01
      7  0.000000D+00  0.723263D+01
      8  0.147340D+01  0.000000D+00  0.281113D+01
      9 -0.236595D+01  0.000000D+00  0.000000D+00  0.473190D+01
 ICntrl=  10100127.
 Calling FoFJK, ICntrl=  10100127 FMM=F ISym2X=0 I1Cent= 0 IOpClX= 0 NMat=1 NMatS=1 NMatT=0.
 FoFJK:  IHMeth= 1 ICntrl=10100127 DoSepK=F KAlg= 0 I1Cent=   0 FoldK=F
 IRaf=         0 NMat=   1 IRICut=       1 DoRegI=T DoRafI=F ISym2E= 0.
 FoFCou: FMM=F IPFlag=           0 FMFlag=      100000 FMFlg1=         800
         NFxFlg=           0 DoJE=F BraDBF=F KetDBF=F FulRan=T
         wScrn=  0.000000 ICntrl=10100127 IOpCl=  0 I1Cent=           0 NGrid=           0
         NMat0=    1 NMatS0=      1 NMatT0=    0 NMatD0=    1 NMtDS0=    0 NMtDT0=    0
 Symmetry not used in FoFCou.
 FoFCou:  KetSym=F NOpSet=  1 NOpAb=1 NOp=  1.
 FoFCou:  CnvScl= 1.00D+00 Thresh= 1.00D-10 IAcrcy=      10.
 PrismS was handed    33527429 working-precision words and   276 shell-pairs
 FoFCou: LinMIO=F DoNuc=F BraDBF=F KetDBF=F HaveP=T PDBF=F HaveZ=T HaveW=F
         NIJTC =      10 NIJTAt=       0 NIJTCD=       0 NIJTT =      10
         IJTBeg=       1 IJTEnd=      10 KLTBeg=       1 KLTEnd=      10
         IPTBeg=       1 IPTEnd=      10 IPTBCv=       1 IPTECv=      10
         IZTBeg=       1 IZTEnd=      10 IZTBCv=       1 IZTECv=      10
         IWTBeg=      11 IWTEnd=      10 IWTBCv=      11 IWTECv=      10
         INTBeg=       1 INTEnd=       0 IFTBCv=       1 IFTECv=      10
 NCel replicated for PrismC:     1
 CoulSu:  IncDef=  1024 NBBP=          38226 NTPThr=   100 NPartT=    1 Incr=         382 LDynOK=F.
 CoulSu:  NPrtUS=   1 ThrOK=F IAlg=1 NPAlg=1 LenDen=           0 LWGrdD=           0 DoCopy=F.
 Enter PrismC: JobTyp=22 DoJE=F Cont=F.
 PrismC:  IPart=     0 DynPar=F LinDyn=F Incr=         382 UseFst=F UseS4=T IGathr=2.
 PrismC was handed    33527114 working-precision words and   276 shell-pairs
 IPart=  0 NShTot=       38226 NShNF=       38226 NShFF=           0 NBatch=        1517 AvBLen=        25.2
 CoulSu:  NxtVal=            383.
 ReadGW:  IGet=0 IStart=           1 Next=           1 LGW=           0.
 Remaining memory in FofDFT       32.00 Mw
 CkSvGd:  ISavGI=        -1 IRadAn=       4 IRASav=       0 ISavGd=        -1.
 CalDSu:  NPrtUS=   1 ThrOK=F IAlg=1 NPAlg=1 DoDPD=F LenP=        2211 LenD1P=             0.
 IPart=  0 IRanGd=          0 ScrnBf=T ScrnGd=T RCrit=4.00D+00 DoMicB=T.
 IPart=  0        22724 of        23652 points in      49 batches and      181 microbatches, Max-NSigAt=       3 Max-NSgAt2=       3
 Polarizability after L703:
                1             2             3 
      1  0.599321D+01
      2  0.000000D+00  0.855283D+01
      3  0.000000D+00  0.000000D+00  0.750692D+01
 Dipole Derivatives after L703:
                 1             2             3             4             5 
      1   0.345818D+00  0.000000D+00  0.000000D+00  0.345818D+00  0.000000D+00
      2   0.000000D+00  0.245607D+00  0.775149D-01  0.000000D+00  0.245607D+00
      3   0.000000D+00  0.665961D-01  0.172463D+00  0.000000D+00 -0.665961D-01
                 6             7             8             9 
      1   0.000000D+00 -0.691636D+00  0.000000D+00  0.000000D+00
      2  -0.775149D-01  0.000000D+00 -0.491215D+00  0.000000D+00
      3   0.172463D+00  0.000000D+00  0.000000D+00 -0.344926D+00
 Hessian after L703:
                1             2             3             4             5 
      1 -0.834927D-05
      2  0.000000D+00  0.375302D+00
      3  0.000000D+00 -0.234994D+00  0.217258D+00
      4  0.173171D-04  0.000000D+00  0.000000D+00 -0.834924D-05
      5  0.000000D+00 -0.311821D-01 -0.311904D-01  0.000000D+00  0.375302D+00
      6  0.000000D+00  0.311904D-01  0.113482D-01  0.000000D+00  0.234994D+00
      7 -0.896787D-05  0.000000D+00  0.000000D+00 -0.896789D-05  0.000000D+00
      8  0.000000D+00 -0.344119D+00  0.266184D+00  0.000000D+00 -0.344119D+00
      9  0.000000D+00  0.203803D+00 -0.228606D+00  0.000000D+00 -0.203803D+00
                6             7             8             9 
      6  0.217258D+00
      7  0.000000D+00  0.179358D-04
      8 -0.266184D+00  0.000000D+00  0.688239D+00
      9 -0.228606D+00  0.000000D+00  0.000000D+00  0.457212D+00
 FrcOut:
 IF    =    37 IFX   =    46 IFXYZ =    55
 IFFX  =    64 IFFFX =   109 IFLen =     9
 IFFLen=    45 IFFFLn=     0 IEDerv=   109
 LEDerv=   485 IFroze=   721 ICStrt=  7843
 DipoleDeriv   = 3.45817952D-01 2.65498400D-13 9.62061526D-12
                 3.88615801D-11 2.45607497D-01 6.65960648D-02
                -3.92659052D-11 7.75148715D-02 1.72462754D-01
                 3.45817952D-01 5.08724043D-12 2.42184331D-11
                -2.37773385D-11 2.45607497D-01-6.65960923D-02
                -1.99860404D-11-7.75148684D-02 1.72462763D-01
                -6.91635904D-01-4.95793470D-12-3.23148419D-11
                -1.47698777D-11-4.91214994D-01 2.74840284D-08
                 6.15935776D-11-3.09765927D-09-3.44925517D-01
 VibFq2-Diag1:  N=      9 IV=           4 MDV=    33546101 NE2=     3727344
 Full mass-weighted force constant matrix:
 Low frequencies ---  -25.9414   -0.0015   -0.0005    0.0006   13.4516   16.2716
 Low frequencies --- 1644.9596 3834.2081 3944.4001
 OrtVCM:  Ph=1 IPass= 1 DotMx1= 0.00D+00
 OrtVCM:  IS=    1 I=    1 IndO=    1 Dot= 1.00D+00 DotN= 1.00D+00 ElMax1= 9.42D-01 ElMax1N= 9.42D-01
 OrtVCM:  Ph=2 NNew=    0 IAdd=    2 IPass= 1 DotMx2= 0.00D+00
 OrtVCM:  IS=    1 I=    2 IndO=    2 Dot= 1.00D+00 DotN= 1.00D+00 ElMax1= 9.42D-01 ElMax1N= 9.42D-01
 OrtVCM:  Ph=2 NNew=    0 IAdd=    3 IPass= 1 DotMx2= 0.00D+00
 OrtVCM:  IS=    1 I=    3 IndO=    3 Dot= 1.00D+00 DotN= 1.00D+00 ElMax1= 9.42D-01 ElMax1N= 9.42D-01
 OrtVCM:  Ph=2 NNew=    0 IAdd=    4 IPass= 1 DotMx2= 5.55D-17
 OrtVCM:  IS=    1 I=    4 IndO=    4 Dot= 1.00D+00 DotN= 1.00D+00 ElMax1= 6.66D-01 ElMax1N= 6.66D-01
 OrtVCM:  Ph=2 NNew=    0 IAdd=    5 IPass= 1 DotMx2= 0.00D+00
 OrtVCM:  IS=    1 I=    5 IndO=    5 Dot= 1.00D+00 DotN= 1.00D+00 ElMax1= 7.07D-01 ElMax1N= 7.07D-01
 OrtVCM:  Ph=2 NNew=    0 IAdd=    6 IPass= 1 DotMx2= 2.78D-17
 OrtVCM:  IS=    1 I=    6 IndO=    6 Dot= 1.00D+00 DotN= 1.00D+00 ElMax1= 5.71D-01 ElMax1N= 5.71D-01
 OrtVCM:  Ph=1 IPass= 1 DotMx1= 7.07D-01
 OrtVCM:  Ph=1 IPass= 2 DotMx1= 1.96D-16
 OrtVCM:  IS=    1 I=    1 IndO=    0 Dot= 1.30D-63 DotN= 1.30D-63 ElMax1= 2.47D-32 ElMax1N= 2.47D-32
 OrtVCM:  IS=    1 I=    2 IndO=    7 Dot= 7.90D-01 DotN= 7.90D-01 ElMax1= 7.90D-01 ElMax1N= 7.90D-01
 OrtVCM:  Ph=2 NNew=    0 IAdd=    3 IPass= 1 DotMx2= 2.52D-01
 OrtVCM:  Ph=2 NNew=    0 IAdd=    3 IPass= 2 DotMx2= 2.78D-17
 OrtVCM:  IS=    1 I=    3 IndO=    8 Dot= 5.54D-01 DotN= 5.54D-01 ElMax1= 5.54D-01 ElMax1N= 5.54D-01
 SchOr2:  IPass= 1 Test2A= 1.00D-01 IOff=     0 NDo=     3 NNew=     2
 OrtVCM:  Ph=1 IPass= 1 DotMx1= 7.07D-01
 OrtVCM:  Ph=1 IPass= 2 DotMx1= 1.96D-16
 OrtVCM:  IS=    1 I=    1 IndO=    0 Dot= 1.30D-63 DotN= 1.30D-63 ElMax1= 2.47D-32 ElMax1N= 2.47D-32
 SchOr2:  IPass= 1 Test2A= 1.00D-01 IOff=     3 NDo=     1 NNew=     0
 OrtVCM:  Ph=1 IPass= 1 DotMx1= 3.93D-01
 OrtVCM:  Ph=1 IPass= 2 DotMx1= 7.63D-17
 OrtVCM:  IS=    1 I=    1 IndO=    9 Dot= 5.89D-01 DotN= 5.89D-01 ElMax1= 5.89D-01 ElMax1N= 5.89D-01
 SchOr2:  IPass= 1 Test2A= 1.00D-01 IOff=     4 NDo=     1 NNew=     1
 VibFq2-Diag2:  N=      3 IV=           4 MDV=    33546101 NE2=    11182032
 Dipole derivatives wrt mode   1: -3.31014D-10  5.10476D-08  8.25449D+00
 Vibrational polarizability contributions from mode   1       0.0000000       0.0000000       0.6776467
 Vibrational hyperpolarizability contributions from mode   1       0.0000000       0.0000000       0.0000000
 Dipole derivatives wrt mode   2: -1.92797D-09 -2.87012D-08  2.28847D+00
 Vibrational polarizability contributions from mode   2       0.0000000       0.0000000       0.0095868
 Vibrational hyperpolarizability contributions from mode   2       0.0000000       0.0000000       0.0000000
 Dipole derivatives wrt mode   3:  5.33561D-10  7.25518D+00 -3.63893D-07
 Vibrational polarizability contributions from mode   3       0.0000000       0.0910474       0.0000000
 Vibrational hyperpolarizability contributions from mode   3       0.0000000       0.0000000       0.0000000
 Diagonal vibrational polarizability:
        0.0000000       0.0910474       0.6872335
 NorSel:  MapVib=      1      2      3
 Harmonic frequencies (cm**-1), IR intensities (KM/Mole), Raman scattering
 activities (A**4/AMU), depolarization ratios for plane and unpolarized
 incident light, reduced masses (AMU), force constants (mDyne/A),
 and normal coordinates:
                      1                      2                      3
                      A                      A                      A
 Frequencies --   1644.95963087358200              3834.20806406454500              3944.40010631796600
 Red. masses --      1.08311889712588                 1.04475442549504                 1.08191198380675
 Frc consts  --      1.72677911498858                 9.04931565901101                 9.91754136533022
 IR Inten    --     68.13664473438617                 5.23708906635062                52.63765901591171
  Atom  AN      X      Y      Z        X      Y      Z        X      Y      Z
     1   1     0.000000000000   0.425596307867   0.562455176334     0.000000000000  -0.586178204097   0.393907453269     0.000000000000   0.557929058320  -0.431559340728
     2   1     0.000000000000  -0.425596309715   0.562455174905     0.000000000000   0.586178194304   0.393907445694     0.000000000000   0.557929067566   0.431559349747
     3   8     0.000000000000   0.000000000116  -0.070879579033     0.000000000000   0.000000000617  -0.049639500902     0.000000000000  -0.070309206540  -0.000000000568

 -------------------
 - Thermochemistry -
 -------------------
 Temperature   298.150 Kelvin.  Pressure   1.00000 Atm.
 Atom     1 has atomic number  1 and mass   1.00783
 Atom     2 has atomic number  1 and mass   1.00783
 Atom     3 has atomic number  8 and mass  15.99491
 Molecular mass:    18.01056 amu.
 Principal axes and moments of inertia in atomic units:
                           1         2         3
     Eigenvalues --     2.20080   4.14192   6.34272
           X            0.00000   0.00000   1.00000
           Y            1.00000   0.00000   0.00000
           Z            0.00000   1.00000   0.00000
 This molecule is an asymmetric top.
 Rotational symmetry number  2.
 Rotational temperatures (Kelvin)     39.35569    20.91150    13.65563
 Rotational constants (GHZ):         820.04058   435.72554   284.53756
 Zero-point vibrational energy      56365.5 (Joules/Mol)
                                   13.47167 (Kcal/Mol)
 Vibrational temperatures:   2366.73  5516.56  5675.10
          (Kelvin)
 
 Zero-point correction=                           0.021468 (Hartree/Particle)
 Thermal correction to Energy=                    0.024304
 Thermal correction to Enthalpy=                  0.025248
 Thermal correction to Gibbs Free Energy=         0.003833
 Sum of electronic and zero-point Energies=            -76.391824
 Sum of electronic and thermal Energies=               -76.388989
 Sum of electronic and thermal Enthalpies=             -76.388045
 Sum of electronic and thermal Free Energies=          -76.409460
 
                     E (Thermal)             CV                S
                      KCal/Mol        Cal/Mol-Kelvin    Cal/Mol-Kelvin
 Total                   15.251              6.006             45.071
 Electronic               0.000              0.000              0.000
 Translational            0.889              2.981             34.608
 Rotational               0.889              2.981             10.457
 Vibrational             13.473              0.045              0.006
                       Q            Log10(Q)             Ln(Q)
 Total Bot       0.172567D-01         -1.763042         -4.059555
 Total V=0       0.129344D+09          8.111746         18.677986
 Vib (Bot)       0.133465D-09         -9.874633        -22.737183
 Vib (V=0)       0.100036D+01          0.000155          0.000357
 Electronic      0.100000D+01          0.000000          0.000000
 Translational   0.300432D+07          6.477746         14.915562
 Rotational      0.430373D+02          1.633845          3.762067
 -------------------------------------------------------------------
 Center     Atomic                   Forces (Hartrees/Bohr)
 Number     Number              X              Y              Z
 -------------------------------------------------------------------
      1        1           0.000000000    0.000001741    0.000006944
      2        1           0.000000000   -0.000001741    0.000006944
      3        8           0.000000000    0.000000000   -0.000013888
 -------------------------------------------------------------------
 Cartesian Forces:  Max     0.000013888 RMS     0.000005729
 Z-matrix is all fixed cartesians, so copy forces.
 Force constants in Cartesian coordinates: 
                1             2             3             4             5 
      1 -0.834927D-05
      2  0.000000D+00  0.375302D+00
      3  0.000000D+00 -0.234994D+00  0.217258D+00
      4  0.173171D-04  0.000000D+00  0.000000D+00 -0.834924D-05
      5  0.000000D+00 -0.311821D-01 -0.311904D-01  0.000000D+00  0.375302D+00
      6  0.000000D+00  0.311904D-01  0.113482D-01  0.000000D+00  0.234994D+00
      7 -0.896787D-05  0.000000D+00  0.000000D+00 -0.896789D-05  0.000000D+00
      8  0.000000D+00 -0.344119D+00  0.266184D+00  0.000000D+00 -0.344119D+00
      9  0.000000D+00  0.203803D+00 -0.228606D+00  0.000000D+00 -0.203803D+00
                6             7             8             9 
      6  0.217258D+00
      7  0.000000D+00  0.179358D-04
      8 -0.266184D+00  0.000000D+00  0.688239D+00
      9 -0.228606D+00  0.000000D+00  0.000000D+00  0.457212D+00
 Final forces over variables, Energy=-7.64132926D+01:
 -1.04027199D-15-7.76059735D-16 1.81633172D-15 1.74142802D-06
 -1.74142801D-06-1.76341602D-14 6.94415510D-06 6.94415510D-06
 -1.38883102D-05

 GradGradGradGradGradGradGradGradGradGradGradGradGradGradGradGradGradGrad
 Berny optimization.
 Search for a local minimum.
 Step number   1 out of a maximum of    2
 All quantities printed in internal units (Hartrees-Bohrs-Radians)
 Second derivative matrix not updated -- analytic derivatives used.
 The second derivative matrix:
                          X1        Y1        Z1        X2        Y2
           X1          -0.00001
           Y1           0.00000   0.37530
           Z1           0.00000  -0.23499   0.21726
           X2           0.00002   0.00000   0.00000  -0.00001
           Y2           0.00000  -0.03118  -0.03119   0.00000   0.37530
           Z2           0.00000   0.03119   0.01135   0.00000   0.23499
           X3          -0.00001   0.00000   0.00000  -0.00001   0.00000
           Y3           0.00000  -0.34412   0.26618   0.00000  -0.34412
           Z3           0.00000   0.20380  -0.22861   0.00000  -0.20380
                          Z2        X3        Y3        Z3
           Z2           0.21726
           X3           0.00000   0.00002
           Y3          -0.26618   0.00000   0.68824
           Z3          -0.22861   0.00000   0.00000   0.45721
 ITU=  0
     Eigenvalues ---    0.15218   0.78727   0.98956
 Angle between quadratic step and forces=  41.24 degrees.
 Linear search not attempted -- first point.
 TrRot=  0.000000  0.000000 -0.000016  0.000000  0.000000  0.000000
 Variable       Old X    -DE/DX   Delta X   Delta X   Delta X     New X
                                 (Linear)    (Quad)   (Total)
    X1        0.00000   0.00000   0.00000   0.00000   0.00000   0.00000
    Y1        1.43349   0.00000   0.00000   0.00004   0.00004   1.43352
    Z1       -0.88704   0.00001   0.00000   0.00004   0.00002  -0.88702
    X2        0.00000   0.00000   0.00000   0.00000   0.00000   0.00000
    Y2       -1.43349   0.00000   0.00000  -0.00004  -0.00004  -1.43352
    Z2       -0.88704   0.00001   0.00000   0.00004   0.00002  -0.88702
    X3        0.00000   0.00000   0.00000   0.00000   0.00000   0.00000
    Y3        0.00000   0.00000   0.00000   0.00000   0.00000   0.00000
    Z3        0.22176  -0.00001   0.00000  -0.00003  -0.00004   0.22172
         Item               Value     Threshold  Converged?
 Maximum Force            0.000014     0.000450     YES
 RMS     Force            0.000006     0.000300     YES
 Maximum Displacement     0.000041     0.001800     YES
 RMS     Displacement     0.000024     0.001200     YES
 Predicted change in Energy=-4.908355D-10
 Optimization completed.
    -- Stationary point found.
 GradGradGradGradGradGradGradGradGradGradGradGradGradGradGradGradGradGrad


 Test job not archived.
 1\1\GINC-ILMFIXE086\Freq\RB2PLYP-FC\def2TZVPP\H2O1\ALLOUCHE\16-Apr-202
 0\0\\# B2PLYP/def2tzvpp nosym scf(tight) Freq # iop(7/33=1)\\xPert\\0,
 1\H,0.,0.758568,-0.469403\H,0.,-0.758568,-0.469403\O,0.,0.,0.117351\\V
 ersion=EM64L-G09RevD.01\HF=-76.3297601\MP2=-76.4132926\RMSD=3.460e-09\
 RMSF=5.729e-06\ZeroPoint=0.0214685\Thermal=0.0243037\Dipole=0.,0.,-0.7
 668932\DipoleDeriv=0.345818,0.,0.,0.,0.2456075,0.0665961,0.,0.0775149,
 0.1724628,0.345818,0.,0.,0.,0.2456075,-0.0665961,0.,-0.0775149,0.17246
 28,-0.6916359,0.,0.,0.,-0.491215,0.,0.,0.,-0.3449255\Polar=5.9932116,0
 .,8.5528338,0.,0.,7.5069208\PG=C02V [C2(O1),SGV(H2)]\NImag=0\\-0.00000
 835,0.,0.37530155,0.,-0.23499361,0.21725800,0.00001732,0.,0.,-0.000008
 35,0.,-0.03118210,-0.03119041,0.,0.37530154,0.,0.03119041,0.01134820,0
 .,0.23499361,0.21725800,-0.00000897,0.,0.,-0.00000897,0.,0.,0.00001794
 ,0.,-0.34411945,0.26618402,0.,-0.34411945,-0.26618402,0.,0.68823890,0.
 ,0.20380320,-0.22860620,0.,-0.20380320,-0.22860620,0.,0.,0.45721240\\0
 .,-0.00000174,-0.00000694,0.,0.00000174,-0.00000694,0.,0.,0.00001389\\
 \@


 TELEVISION IS CALLED A MEDIUM BECAUSE IT ISN'T
 RARE, AND IT ISN'T WELL DONE.
 Job cpu time:       0 days  0 hours  0 minutes 45.0 seconds.
 File lengths (MBytes):  RWF=     78 Int=      0 D2E=      0 Chk=      1 Scr=      1
 Normal termination of Gaussian 09 at Thu Apr 16 09:46:54 2020.
