begin
comment by xLogML
atom 0.000000000000 0.000000000000 0.210160305531 O -0.994150000000 0.000000000000 0.000000000000 0.053933139000 0.034150072000
atom 0.000000000000 1.512987147968 -0.840643111851 H 0.503110000000 0.000000000000 0.000000000000 -0.006785438000 -0.001290983000
atom 0.000000000000 -1.512987147968 -0.651670424074 H 0.491040000000 0.000000000000 0.000000000000 -0.047147701000 -0.032859089000
energy  -76.3980843800
charge  0
end
