begin
comment by xLogML
atom 0.000000000000 0.000000000000 0.210160305531 O -0.994150000000 0.000000000000 0.000000000000 0.053933139000 0.034150072000
atom 0.000000000000 1.512987147968 -0.840643111851 H 0.503110000000 0.000000000000 0.000000000000 -0.006785438000 -0.001290983000
atom 0.000000000000 -1.512987147968 -0.651670424074 H 0.491040000000 0.000000000000 0.000000000000 -0.047147701000 -0.032859089000
energy  -76.3980843800
charge  0
end
begin
comment by xLogML
atom 0.000000000000 0.000000000000 0.210160305531 O -0.994900000000 0.000000000000 0.000000000000 0.000000000000 -0.000000318000
atom 0.000000000000 1.512987147968 -0.840643111851 H 0.497450000000 0.000000000000 0.000000000000 0.000000205000 0.000000159000
atom 0.000000000000 -1.512987147968 -0.840643111851 H 0.497450000000 0.000000000000 0.000000000000 -0.000000205000 0.000000159000
energy  -76.4011969643
charge  0
end
begin
comment by xLogML
atom -0.188972687777 0.000000000000 0.210160305531 O -0.994750000000 0.000000000000 0.001066370000 0.000000000000 -0.005929666000
atom 0.000000000000 1.512987147968 -0.840643111851 H 0.497380000000 0.000000000000 -0.000533185000 -0.002808325000 0.002964833000
atom 0.000000000000 -1.512987147968 -0.840643111851 H 0.497380000000 0.000000000000 -0.000533185000 0.002808325000 0.002964833000
energy  -76.4011461180
charge  0
end
begin
comment by xLogML
atom 0.000000000000 0.000000000000 0.210160305531 O -0.995690000000 0.000000000000 -0.000467402000 0.003940978000 -0.002460980000
atom -0.188972687777 1.512987147968 -0.840643111851 H 0.498240000000 0.000000000000 0.000471863000 -0.003813625000 0.002599050000
atom 0.000000000000 -1.512987147968 -0.840643111851 H 0.497450000000 0.000000000000 -0.000004462000 -0.000127354000 -0.000138070000
energy  -76.4011744779
charge  0
end
begin
comment by xLogML
atom 0.000000000000 0.000000000000 0.210160305531 O -0.995690000000 0.000000000000 -0.000467402000 -0.003940978000 -0.002460980000
atom 0.000000000000 1.512987147968 -0.840643111851 H 0.497450000000 0.000000000000 -0.000004462000 0.000127354000 -0.000138070000
atom -0.188972687777 -1.512987147968 -0.840643111851 H 0.498240000000 0.000000000000 0.000471863000 0.003813625000 0.002599050000
energy  -76.4011744779
charge  0
end
begin
comment by xLogML
atom 0.000000000000 -0.188972687777 0.210160305531 O -0.978090000000 0.000000000000 0.000000000000 0.132071360000 0.031831939000
atom 0.000000000000 1.512987147968 -0.840643111851 H 0.502270000000 0.000000000000 0.000000000000 -0.051184278000 0.031934373000
atom 0.000000000000 -1.512987147968 -0.840643111851 H 0.475820000000 0.000000000000 0.000000000000 -0.080887082000 -0.063766312000
energy  -76.3888422067
charge  0
end
begin
comment by xLogML
atom 0.000000000000 0.000000000000 0.210160305531 O -0.960910000000 0.000000000000 0.000000000000 -0.080955894000 0.050195441000
atom 0.000000000000 1.324014460190 -0.840643111851 H 0.471440000000 0.000000000000 0.000000000000 0.086951050000 -0.056754882000
atom 0.000000000000 -1.512987147968 -0.840643111851 H 0.489470000000 0.000000000000 0.000000000000 -0.005995155000 0.006559441000
energy  -76.3935447061
charge  0
end
begin
comment by xLogML
atom 0.000000000000 0.000000000000 0.210160305531 O -1.015210000000 0.000000000000 0.000000000000 -0.051228328000 -0.020029938000
atom 0.000000000000 1.512987147968 -0.840643111851 H 0.503450000000 0.000000000000 0.000000000000 -0.004223699000 -0.006142478000
atom 0.000000000000 -1.701959835745 -0.840643111851 H 0.511760000000 0.000000000000 0.000000000000 0.055452027000 0.026172415000
energy  -76.3955284012
charge  0
end
begin
comment by xLogML
atom 0.000000000000 0.000000000000 0.021187617754 O -0.994100000000 0.000000000000 0.000000000000 0.000000000000 0.067954594000
atom 0.000000000000 1.512987147968 -0.840643111851 H 0.497050000000 0.000000000000 0.000000000000 0.040685278000 -0.033977297000
atom 0.000000000000 -1.512987147968 -0.840643111851 H 0.497050000000 0.000000000000 0.000000000000 -0.040685278000 -0.033977297000
energy  -76.3947400754
charge  0
end
begin
comment by xLogML
atom 0.000000000000 0.000000000000 0.210160305531 O -0.991990000000 0.000000000000 0.000000000000 0.036444416000 -0.031761285000
atom 0.000000000000 1.512987147968 -1.029615799628 H 0.498810000000 0.000000000000 0.000000000000 -0.030568425000 0.030447156000
atom 0.000000000000 -1.512987147968 -0.840643111851 H 0.493180000000 0.000000000000 0.000000000000 -0.005875990000 0.001314128000
energy  -76.3982424806
charge  0
end
begin
comment by xLogML
atom 0.000000000000 0.000000000000 0.210160305531 O -0.991990000000 0.000000000000 0.000000000000 -0.036444416000 -0.031761285000
atom 0.000000000000 1.512987147968 -0.840643111851 H 0.493180000000 0.000000000000 0.000000000000 0.005875990000 0.001314128000
atom 0.000000000000 -1.512987147968 -1.029615799628 H 0.498810000000 0.000000000000 0.000000000000 0.030568425000 0.030447156000
energy  -76.3982424806
charge  0
end
begin
comment by xLogML
atom 0.188972687777 0.000000000000 0.210160305531 O -0.994750000000 0.000000000000 -0.001066370000 0.000000000000 -0.005929666000
atom 0.000000000000 1.512987147968 -0.840643111851 H 0.497380000000 0.000000000000 0.000533185000 -0.002808325000 0.002964833000
atom 0.000000000000 -1.512987147968 -0.840643111851 H 0.497380000000 0.000000000000 0.000533185000 0.002808325000 0.002964833000
energy  -76.4011461180
charge  0
end
begin
comment by xLogML
atom 0.000000000000 0.000000000000 0.210160305531 O -0.995690000000 0.000000000000 0.000467402000 0.003940978000 -0.002460980000
atom 0.188972687777 1.512987147968 -0.840643111851 H 0.498240000000 0.000000000000 -0.000471863000 -0.003813625000 0.002599050000
atom 0.000000000000 -1.512987147968 -0.840643111851 H 0.497450000000 0.000000000000 0.000004462000 -0.000127354000 -0.000138070000
energy  -76.4011744779
charge  0
end
begin
comment by xLogML
atom 0.000000000000 0.000000000000 0.210160305531 O -0.995690000000 0.000000000000 0.000467402000 -0.003940978000 -0.002460980000
atom 0.000000000000 1.512987147968 -0.840643111851 H 0.497450000000 0.000000000000 0.000004462000 0.000127354000 -0.000138070000
atom 0.188972687777 -1.512987147968 -0.840643111851 H 0.498240000000 0.000000000000 -0.000471863000 0.003813625000 0.002599050000
energy  -76.4011744779
charge  0
end
begin
comment by xLogML
atom 0.000000000000 0.188972687777 0.210160305531 O -0.978090000000 0.000000000000 0.000000000000 -0.132071360000 0.031831939000
atom 0.000000000000 1.512987147968 -0.840643111851 H 0.475820000000 0.000000000000 0.000000000000 0.080887082000 -0.063766312000
atom 0.000000000000 -1.512987147968 -0.840643111851 H 0.502270000000 0.000000000000 0.000000000000 0.051184278000 0.031934373000
energy  -76.3888422067
charge  0
end
begin
comment by xLogML
atom 0.000000000000 0.000000000000 0.210160305531 O -1.015210000000 0.000000000000 0.000000000000 0.051228328000 -0.020029938000
atom 0.000000000000 1.701959835745 -0.840643111851 H 0.511760000000 0.000000000000 0.000000000000 -0.055452027000 0.026172415000
atom 0.000000000000 -1.512987147968 -0.840643111851 H 0.503450000000 0.000000000000 0.000000000000 0.004223699000 -0.006142478000
energy  -76.3955284012
charge  0
end
begin
comment by xLogML
atom 0.000000000000 0.000000000000 0.210160305531 O -0.960910000000 0.000000000000 0.000000000000 0.080955894000 0.050195441000
atom 0.000000000000 1.512987147968 -0.840643111851 H 0.489470000000 0.000000000000 0.000000000000 0.005995155000 0.006559441000
atom 0.000000000000 -1.324014460190 -0.840643111851 H 0.471440000000 0.000000000000 0.000000000000 -0.086951050000 -0.056754882000
energy  -76.3935447061
charge  0
end
begin
comment by xLogML
atom 0.000000000000 0.000000000000 0.399132993308 O -0.990190000000 0.000000000000 0.000000000000 0.000000000000 -0.063333215000
atom 0.000000000000 1.512987147968 -0.840643111851 H 0.495100000000 0.000000000000 0.000000000000 -0.024641889000 0.031666607000
atom 0.000000000000 -1.512987147968 -0.840643111851 H 0.495100000000 0.000000000000 0.000000000000 0.024641889000 0.031666607000
energy  -76.3950459619
charge  0
end
begin
comment by xLogML
atom 0.000000000000 0.000000000000 0.210160305531 O -0.994150000000 0.000000000000 0.000000000000 -0.053933139000 0.034150072000
atom 0.000000000000 1.512987147968 -0.651670424074 H 0.491040000000 0.000000000000 0.000000000000 0.047147701000 -0.032859089000
atom 0.000000000000 -1.512987147968 -0.840643111851 H 0.503110000000 0.000000000000 0.000000000000 0.006785438000 -0.001290983000
energy  -76.3980843800
charge  0
end
begin
comment by xLogML
atom 0.000000000000 0.000000000000 0.210160305531 O -0.994150000000 0.000000000000 0.000000000000 0.053933139000 0.034150072000
atom 0.000000000000 1.512987147968 -0.840643111851 H 0.503110000000 0.000000000000 0.000000000000 -0.006785438000 -0.001290983000
atom 0.000000000000 -1.512987147968 -0.651670424074 H 0.491040000000 0.000000000000 0.000000000000 -0.047147701000 -0.032859089000
energy  -76.3980843800
charge  0
end
