begin
comment by xLogML
atom   0.0000000000000000E+00   0.0000000000000000E+00   2.1016030553100001E-01  O  -9.9414999999999998E-01   0.0000000000000000E+00   0.0000000000000000E+00   5.3933138999999998E-02   3.4150071999999997E-02
atom   0.0000000000000000E+00   1.5129871479679999E+00  -8.4064311185100005E-01  H   5.0310999999999995E-01   0.0000000000000000E+00   0.0000000000000000E+00  -6.7854380000000004E-03  -1.2909830000000001E-03
atom   0.0000000000000000E+00  -1.5129871479679999E+00  -6.5167042407400000E-01  H   4.9103999999999998E-01   0.0000000000000000E+00   0.0000000000000000E+00  -4.7147701000000000E-02  -3.2859089000000001E-02
energy  -7.6398084380000000E+01
dipole   0.0000000000000000E+00   0.0000000000000000E+00   0.0000000000000000E+00
charge   0.0000000000000000E+00
end
begin
comment by xLogML
atom   0.0000000000000000E+00   0.0000000000000000E+00   2.1016030553100001E-01  O  -9.9490000000000001E-01   0.0000000000000000E+00   0.0000000000000000E+00   0.0000000000000000E+00  -3.1800000000000002E-07
atom   0.0000000000000000E+00   1.5129871479679999E+00  -8.4064311185100005E-01  H   4.9745000000000000E-01   0.0000000000000000E+00   0.0000000000000000E+00   2.0500000000000000E-07   1.5900000000000001E-07
atom   0.0000000000000000E+00  -1.5129871479679999E+00  -8.4064311185100005E-01  H   4.9745000000000000E-01   0.0000000000000000E+00   0.0000000000000000E+00  -2.0500000000000000E-07   1.5900000000000001E-07
energy  -7.6401196964299999E+01
dipole   0.0000000000000000E+00   0.0000000000000000E+00   0.0000000000000000E+00
charge   0.0000000000000000E+00
end
begin
comment by xLogML
atom  -1.8897268777699999E-01   0.0000000000000000E+00   2.1016030553100001E-01  O  -9.9475000000000002E-01   0.0000000000000000E+00   1.0663700000000001E-03   0.0000000000000000E+00  -5.9296660000000001E-03
atom   0.0000000000000000E+00   1.5129871479679999E+00  -8.4064311185100005E-01  H   4.9737999999999999E-01   0.0000000000000000E+00  -5.3318500000000004E-04  -2.8083250000000000E-03   2.9648330000000001E-03
atom   0.0000000000000000E+00  -1.5129871479679999E+00  -8.4064311185100005E-01  H   4.9737999999999999E-01   0.0000000000000000E+00  -5.3318500000000004E-04   2.8083250000000000E-03   2.9648330000000001E-03
energy  -7.6401146118000000E+01
dipole   0.0000000000000000E+00   0.0000000000000000E+00   0.0000000000000000E+00
charge   0.0000000000000000E+00
end
begin
comment by xLogML
atom   0.0000000000000000E+00   0.0000000000000000E+00   2.1016030553100001E-01  O  -9.9568999999999996E-01   0.0000000000000000E+00  -4.6740200000000001E-04   3.9409780000000004E-03  -2.4609800000000002E-03
atom  -1.8897268777699999E-01   1.5129871479679999E+00  -8.4064311185100005E-01  H   4.9824000000000002E-01   0.0000000000000000E+00   4.7186299999999999E-04  -3.8136250000000002E-03   2.5990499999999999E-03
atom   0.0000000000000000E+00  -1.5129871479679999E+00  -8.4064311185100005E-01  H   4.9745000000000000E-01   0.0000000000000000E+00  -4.4619999999999998E-06  -1.2735399999999999E-04  -1.3807000000000001E-04
energy  -7.6401174477900000E+01
dipole   0.0000000000000000E+00   0.0000000000000000E+00   0.0000000000000000E+00
charge   0.0000000000000000E+00
end
begin
comment by xLogML
atom   0.0000000000000000E+00   0.0000000000000000E+00   2.1016030553100001E-01  O  -9.9568999999999996E-01   0.0000000000000000E+00  -4.6740200000000001E-04  -3.9409780000000004E-03  -2.4609800000000002E-03
atom   0.0000000000000000E+00   1.5129871479679999E+00  -8.4064311185100005E-01  H   4.9745000000000000E-01   0.0000000000000000E+00  -4.4619999999999998E-06   1.2735399999999999E-04  -1.3807000000000001E-04
atom  -1.8897268777699999E-01  -1.5129871479679999E+00  -8.4064311185100005E-01  H   4.9824000000000002E-01   0.0000000000000000E+00   4.7186299999999999E-04   3.8136250000000002E-03   2.5990499999999999E-03
energy  -7.6401174477900000E+01
dipole   0.0000000000000000E+00   0.0000000000000000E+00   0.0000000000000000E+00
charge   0.0000000000000000E+00
end
begin
comment by xLogML
atom   0.0000000000000000E+00  -1.8897268777699999E-01   2.1016030553100001E-01  O  -9.7809000000000001E-01   0.0000000000000000E+00   0.0000000000000000E+00   1.3207136000000000E-01   3.1831938999999997E-02
atom   0.0000000000000000E+00   1.5129871479679999E+00  -8.4064311185100005E-01  H   5.0226999999999999E-01   0.0000000000000000E+00   0.0000000000000000E+00  -5.1184278000000000E-02   3.1934373000000002E-02
atom   0.0000000000000000E+00  -1.5129871479679999E+00  -8.4064311185100005E-01  H   4.7582000000000002E-01   0.0000000000000000E+00   0.0000000000000000E+00  -8.0887081999999999E-02  -6.3766312000000006E-02
energy  -7.6388842206700005E+01
dipole   0.0000000000000000E+00   0.0000000000000000E+00   0.0000000000000000E+00
charge   0.0000000000000000E+00
end
begin
comment by xLogML
atom   0.0000000000000000E+00   0.0000000000000000E+00   2.1016030553100001E-01  O  -9.6091000000000004E-01   0.0000000000000000E+00   0.0000000000000000E+00  -8.0955894000000000E-02   5.0195441000000000E-02
atom   0.0000000000000000E+00   1.3240144601899999E+00  -8.4064311185100005E-01  H   4.7144000000000003E-01   0.0000000000000000E+00   0.0000000000000000E+00   8.6951050000000002E-02  -5.6754882000000000E-02
atom   0.0000000000000000E+00  -1.5129871479679999E+00  -8.4064311185100005E-01  H   4.8947000000000002E-01   0.0000000000000000E+00   0.0000000000000000E+00  -5.9951550000000003E-03   6.5594410000000001E-03
energy  -7.6393544706100002E+01
dipole   0.0000000000000000E+00   0.0000000000000000E+00   0.0000000000000000E+00
charge   0.0000000000000000E+00
end
begin
comment by xLogML
atom   0.0000000000000000E+00   0.0000000000000000E+00   2.1187617754000000E-02  O  -9.9409999999999998E-01   0.0000000000000000E+00   0.0000000000000000E+00   0.0000000000000000E+00   6.7954593999999993E-02
atom   0.0000000000000000E+00   1.5129871479679999E+00  -8.4064311185100005E-01  H   4.9704999999999999E-01   0.0000000000000000E+00   0.0000000000000000E+00   4.0685277999999998E-02  -3.3977296999999997E-02
atom   0.0000000000000000E+00  -1.5129871479679999E+00  -8.4064311185100005E-01  H   4.9704999999999999E-01   0.0000000000000000E+00   0.0000000000000000E+00  -4.0685277999999998E-02  -3.3977296999999997E-02
energy  -7.6394740075399994E+01
dipole   0.0000000000000000E+00   0.0000000000000000E+00   0.0000000000000000E+00
charge   0.0000000000000000E+00
end
begin
comment by xLogML
atom   0.0000000000000000E+00   0.0000000000000000E+00   2.1016030553100001E-01  O  -9.9199000000000004E-01   0.0000000000000000E+00   0.0000000000000000E+00   3.6444416000000000E-02  -3.1761285000000000E-02
atom   0.0000000000000000E+00   1.5129871479679999E+00  -1.0296157996280000E+00  H   4.9880999999999998E-01   0.0000000000000000E+00   0.0000000000000000E+00  -3.0568425000000000E-02   3.0447156000000000E-02
atom   0.0000000000000000E+00  -1.5129871479679999E+00  -8.4064311185100005E-01  H   4.9318000000000001E-01   0.0000000000000000E+00   0.0000000000000000E+00  -5.8759900000000002E-03   1.3141279999999999E-03
energy  -7.6398242480600004E+01
dipole   0.0000000000000000E+00   0.0000000000000000E+00   0.0000000000000000E+00
charge   0.0000000000000000E+00
end
begin
comment by xLogML
atom   0.0000000000000000E+00   0.0000000000000000E+00   2.1016030553100001E-01  O  -9.9199000000000004E-01   0.0000000000000000E+00   0.0000000000000000E+00  -3.6444416000000000E-02  -3.1761285000000000E-02
atom   0.0000000000000000E+00   1.5129871479679999E+00  -8.4064311185100005E-01  H   4.9318000000000001E-01   0.0000000000000000E+00   0.0000000000000000E+00   5.8759900000000002E-03   1.3141279999999999E-03
atom   0.0000000000000000E+00  -1.5129871479679999E+00  -1.0296157996280000E+00  H   4.9880999999999998E-01   0.0000000000000000E+00   0.0000000000000000E+00   3.0568425000000000E-02   3.0447156000000000E-02
energy  -7.6398242480600004E+01
dipole   0.0000000000000000E+00   0.0000000000000000E+00   0.0000000000000000E+00
charge   0.0000000000000000E+00
end
begin
comment by xLogML
atom   1.8897268777699999E-01   0.0000000000000000E+00   2.1016030553100001E-01  O  -9.9475000000000002E-01   0.0000000000000000E+00  -1.0663700000000001E-03   0.0000000000000000E+00  -5.9296660000000001E-03
atom   0.0000000000000000E+00   1.5129871479679999E+00  -8.4064311185100005E-01  H   4.9737999999999999E-01   0.0000000000000000E+00   5.3318500000000004E-04  -2.8083250000000000E-03   2.9648330000000001E-03
atom   0.0000000000000000E+00  -1.5129871479679999E+00  -8.4064311185100005E-01  H   4.9737999999999999E-01   0.0000000000000000E+00   5.3318500000000004E-04   2.8083250000000000E-03   2.9648330000000001E-03
energy  -7.6401146118000000E+01
dipole   0.0000000000000000E+00   0.0000000000000000E+00   0.0000000000000000E+00
charge   0.0000000000000000E+00
end
begin
comment by xLogML
atom   0.0000000000000000E+00   0.0000000000000000E+00   2.1016030553100001E-01  O  -9.9568999999999996E-01   0.0000000000000000E+00   4.6740200000000001E-04   3.9409780000000004E-03  -2.4609800000000002E-03
atom   1.8897268777699999E-01   1.5129871479679999E+00  -8.4064311185100005E-01  H   4.9824000000000002E-01   0.0000000000000000E+00  -4.7186299999999999E-04  -3.8136250000000002E-03   2.5990499999999999E-03
atom   0.0000000000000000E+00  -1.5129871479679999E+00  -8.4064311185100005E-01  H   4.9745000000000000E-01   0.0000000000000000E+00   4.4619999999999998E-06  -1.2735399999999999E-04  -1.3807000000000001E-04
energy  -7.6401174477900000E+01
dipole   0.0000000000000000E+00   0.0000000000000000E+00   0.0000000000000000E+00
charge   0.0000000000000000E+00
end
begin
comment by xLogML
atom   0.0000000000000000E+00   0.0000000000000000E+00   2.1016030553100001E-01  O  -9.9568999999999996E-01   0.0000000000000000E+00   4.6740200000000001E-04  -3.9409780000000004E-03  -2.4609800000000002E-03
atom   0.0000000000000000E+00   1.5129871479679999E+00  -8.4064311185100005E-01  H   4.9745000000000000E-01   0.0000000000000000E+00   4.4619999999999998E-06   1.2735399999999999E-04  -1.3807000000000001E-04
atom   1.8897268777699999E-01  -1.5129871479679999E+00  -8.4064311185100005E-01  H   4.9824000000000002E-01   0.0000000000000000E+00  -4.7186299999999999E-04   3.8136250000000002E-03   2.5990499999999999E-03
energy  -7.6401174477900000E+01
dipole   0.0000000000000000E+00   0.0000000000000000E+00   0.0000000000000000E+00
charge   0.0000000000000000E+00
end
begin
comment by xLogML
atom   0.0000000000000000E+00   1.8897268777699999E-01   2.1016030553100001E-01  O  -9.7809000000000001E-01   0.0000000000000000E+00   0.0000000000000000E+00  -1.3207136000000000E-01   3.1831938999999997E-02
atom   0.0000000000000000E+00   1.5129871479679999E+00  -8.4064311185100005E-01  H   4.7582000000000002E-01   0.0000000000000000E+00   0.0000000000000000E+00   8.0887081999999999E-02  -6.3766312000000006E-02
atom   0.0000000000000000E+00  -1.5129871479679999E+00  -8.4064311185100005E-01  H   5.0226999999999999E-01   0.0000000000000000E+00   0.0000000000000000E+00   5.1184278000000000E-02   3.1934373000000002E-02
energy  -7.6388842206700005E+01
dipole   0.0000000000000000E+00   0.0000000000000000E+00   0.0000000000000000E+00
charge   0.0000000000000000E+00
end
begin
comment by xLogML
atom   0.0000000000000000E+00   0.0000000000000000E+00   2.1016030553100001E-01  O  -1.0152099999999999E+00   0.0000000000000000E+00   0.0000000000000000E+00   5.1228327999999997E-02  -2.0029938000000001E-02
atom   0.0000000000000000E+00   1.7019598357450001E+00  -8.4064311185100005E-01  H   5.1175999999999999E-01   0.0000000000000000E+00   0.0000000000000000E+00  -5.5452027000000001E-02   2.6172415000000001E-02
atom   0.0000000000000000E+00  -1.5129871479679999E+00  -8.4064311185100005E-01  H   5.0344999999999995E-01   0.0000000000000000E+00   0.0000000000000000E+00   4.2236990000000000E-03  -6.1424779999999998E-03
energy  -7.6395528401199996E+01
dipole   0.0000000000000000E+00   0.0000000000000000E+00   0.0000000000000000E+00
charge   0.0000000000000000E+00
end
begin
comment by xLogML
atom   0.0000000000000000E+00   0.0000000000000000E+00   2.1016030553100001E-01  O  -9.6091000000000004E-01   0.0000000000000000E+00   0.0000000000000000E+00   8.0955894000000000E-02   5.0195441000000000E-02
atom   0.0000000000000000E+00   1.5129871479679999E+00  -8.4064311185100005E-01  H   4.8947000000000002E-01   0.0000000000000000E+00   0.0000000000000000E+00   5.9951550000000003E-03   6.5594410000000001E-03
atom   0.0000000000000000E+00  -1.3240144601899999E+00  -8.4064311185100005E-01  H   4.7144000000000003E-01   0.0000000000000000E+00   0.0000000000000000E+00  -8.6951050000000002E-02  -5.6754882000000000E-02
energy  -7.6393544706100002E+01
dipole   0.0000000000000000E+00   0.0000000000000000E+00   0.0000000000000000E+00
charge   0.0000000000000000E+00
end
begin
comment by xLogML
atom   0.0000000000000000E+00   0.0000000000000000E+00   3.9913299330800001E-01  O  -9.9019000000000001E-01   0.0000000000000000E+00   0.0000000000000000E+00   0.0000000000000000E+00  -6.3333214999999998E-02
atom   0.0000000000000000E+00   1.5129871479679999E+00  -8.4064311185100005E-01  H   4.9509999999999998E-01   0.0000000000000000E+00   0.0000000000000000E+00  -2.4641889000000000E-02   3.1666606999999999E-02
atom   0.0000000000000000E+00  -1.5129871479679999E+00  -8.4064311185100005E-01  H   4.9509999999999998E-01   0.0000000000000000E+00   0.0000000000000000E+00   2.4641889000000000E-02   3.1666606999999999E-02
energy  -7.6395045961899996E+01
dipole   0.0000000000000000E+00   0.0000000000000000E+00   0.0000000000000000E+00
charge   0.0000000000000000E+00
end
begin
comment by xLogML
atom   0.0000000000000000E+00   0.0000000000000000E+00   2.1016030553100001E-01  O  -9.9414999999999998E-01   0.0000000000000000E+00   0.0000000000000000E+00  -5.3933138999999998E-02   3.4150071999999997E-02
atom   0.0000000000000000E+00   1.5129871479679999E+00  -6.5167042407400000E-01  H   4.9103999999999998E-01   0.0000000000000000E+00   0.0000000000000000E+00   4.7147701000000000E-02  -3.2859089000000001E-02
atom   0.0000000000000000E+00  -1.5129871479679999E+00  -8.4064311185100005E-01  H   5.0310999999999995E-01   0.0000000000000000E+00   0.0000000000000000E+00   6.7854380000000004E-03  -1.2909830000000001E-03
energy  -7.6398084380000000E+01
dipole   0.0000000000000000E+00   0.0000000000000000E+00   0.0000000000000000E+00
charge   0.0000000000000000E+00
end
begin
comment by xLogML
atom   0.0000000000000000E+00   0.0000000000000000E+00   2.1016030553100001E-01  O  -9.9414999999999998E-01   0.0000000000000000E+00   0.0000000000000000E+00   5.3933138999999998E-02   3.4150071999999997E-02
atom   0.0000000000000000E+00   1.5129871479679999E+00  -8.4064311185100005E-01  H   5.0310999999999995E-01   0.0000000000000000E+00   0.0000000000000000E+00  -6.7854380000000004E-03  -1.2909830000000001E-03
atom   0.0000000000000000E+00  -1.5129871479679999E+00  -6.5167042407400000E-01  H   4.9103999999999998E-01   0.0000000000000000E+00   0.0000000000000000E+00  -4.7147701000000000E-02  -3.2859089000000001E-02
energy  -7.6398084380000000E+01
dipole   0.0000000000000000E+00   0.0000000000000000E+00   0.0000000000000000E+00
charge   0.0000000000000000E+00
end
