begin
comment by xLogML : From apz2.log file, All value are in AU
atom 0.000000000000 1.433486338220 -0.887043465608 H 0.475580000000 0.000000000000 0.000000000000 -0.020645637000 -0.006775916000
atom 0.000000000000 -1.433486338220 -0.320125402276 H 0.440380000000 0.000000000000 0.000000000000 -0.229135956000 -0.109367564000
atom 0.000000000000 0.000000000000 0.221761338834 O -0.915960000000 0.000000000000 0.000000000000 0.249781592000 0.116143480000
energy  -76.37870496533600
charge  0.00000000000000
dipole 0.00000000000000 -0.02407793517731 -0.66060883915400
end
