begin
comment by xLogML : From apz2.log file, All value are in AU
atom   0.0000000000000000E+00   1.4334863382200000E+00  -8.8704346560799996E-01  H   3.7961570862606175E-01   0.0000000000000000E+00   0.0000000000000000E+00   0.0000000000000000E+00   0.0000000000000000E+00
atom   0.0000000000000000E+00  -1.4334863382200000E+00  -3.2012540227600000E-01  H   4.1240342488473808E-01   0.0000000000000000E+00   0.0000000000000000E+00   0.0000000000000000E+00   0.0000000000000000E+00
atom   0.0000000000000000E+00   0.0000000000000000E+00   2.2176133883400001E-01  O  -7.9007807076880210E-01   0.0000000000000000E+00   0.0000000000000000E+00   0.0000000000000000E+00   0.0000000000000000E+00
energy   0.0000000000000000E+00
dipole   0.0000000000000000E+00  -4.7000743318246219E-02  -6.4396521682719876E-01
charge   1.9410627419976789E-03
end
