 Entering Gaussian System, Link 0=g09
 Input=apz3Freq.gjf
 Output=apz3Freq.log
 Initial command:
 /home/allouche/Softwares/G09D/g09/l1.exe "/home/allouche/Works/ML/H2Orad/Gau-3463.inp" -scrdir="/home/allouche/Works/ML/H2Orad/"
 Entering Link 1 = /home/allouche/Softwares/G09D/g09/l1.exe PID=      3465.
  
 Copyright (c) 1988,1990,1992,1993,1995,1998,2003,2009,2013,
            Gaussian, Inc.  All Rights Reserved.
  
 This is part of the Gaussian(R) 09 program.  It is based on
 the Gaussian(R) 03 system (copyright 2003, Gaussian, Inc.),
 the Gaussian(R) 98 system (copyright 1998, Gaussian, Inc.),
 the Gaussian(R) 94 system (copyright 1995, Gaussian, Inc.),
 the Gaussian 92(TM) system (copyright 1992, Gaussian, Inc.),
 the Gaussian 90(TM) system (copyright 1990, Gaussian, Inc.),
 the Gaussian 88(TM) system (copyright 1988, Gaussian, Inc.),
 the Gaussian 86(TM) system (copyright 1986, Carnegie Mellon
 University), and the Gaussian 82(TM) system (copyright 1983,
 Carnegie Mellon University). Gaussian is a federally registered
 trademark of Gaussian, Inc.
  
 This software contains proprietary and confidential information,
 including trade secrets, belonging to Gaussian, Inc.
  
 This software is provided under written license and may be
 used, copied, transmitted, or stored only in accord with that
 written license.
  
 The following legend is applicable only to US Government
 contracts under FAR:
  
                    RESTRICTED RIGHTS LEGEND
  
 Use, reproduction and disclosure by the US Government is
 subject to restrictions as set forth in subparagraphs (a)
 and (c) of the Commercial Computer Software - Restricted
 Rights clause in FAR 52.227-19.
  
 Gaussian, Inc.
 340 Quinnipiac St., Bldg. 40, Wallingford CT 06492
  
  
 ---------------------------------------------------------------
 Warning -- This program may not be used in any manner that
 competes with the business of Gaussian, Inc. or will provide
 assistance to any competitor of Gaussian, Inc.  The licensee
 of this program is prohibited from giving any competitor of
 Gaussian, Inc. access to this program.  By using this program,
 the user acknowledges that Gaussian, Inc. is engaged in the
 business of creating and licensing software in the field of
 computational chemistry and represents and warrants to the
 licensee that it is not a competitor of Gaussian, Inc. and that
 it will not use this program in any manner prohibited above.
 ---------------------------------------------------------------
  

 Cite this work as:
 Gaussian 09, Revision D.01,
 M. J. Frisch, G. W. Trucks, H. B. Schlegel, G. E. Scuseria, 
 M. A. Robb, J. R. Cheeseman, G. Scalmani, V. Barone, B. Mennucci, 
 G. A. Petersson, H. Nakatsuji, M. Caricato, X. Li, H. P. Hratchian, 
 A. F. Izmaylov, J. Bloino, G. Zheng, J. L. Sonnenberg, M. Hada, 
 M. Ehara, K. Toyota, R. Fukuda, J. Hasegawa, M. Ishida, T. Nakajima, 
 Y. Honda, O. Kitao, H. Nakai, T. Vreven, J. A. Montgomery, Jr., 
 J. E. Peralta, F. Ogliaro, M. Bearpark, J. J. Heyd, E. Brothers, 
 K. N. Kudin, V. N. Staroverov, T. Keith, R. Kobayashi, J. Normand, 
 K. Raghavachari, A. Rendell, J. C. Burant, S. S. Iyengar, J. Tomasi, 
 M. Cossi, N. Rega, J. M. Millam, M. Klene, J. E. Knox, J. B. Cross, 
 V. Bakken, C. Adamo, J. Jaramillo, R. Gomperts, R. E. Stratmann, 
 O. Yazyev, A. J. Austin, R. Cammi, C. Pomelli, J. W. Ochterski, 
 R. L. Martin, K. Morokuma, V. G. Zakrzewski, G. A. Voth, 
 P. Salvador, J. J. Dannenberg, S. Dapprich, A. D. Daniels, 
 O. Farkas, J. B. Foresman, J. V. Ortiz, J. Cioslowski, 
 and D. J. Fox, Gaussian, Inc., Wallingford CT, 2013.
 
 ******************************************
 Gaussian 09:  EM64L-G09RevD.01 24-Apr-2013
                20-Feb-2020 
 ******************************************
 ------------------
 #B3LYP/6-31+G Freq
 ------------------
 1/10=4,30=1,38=1/1,3;
 2/12=2,17=6,18=5,40=1/2;
 3/5=1,6=6,7=10,11=2,16=1,25=1,30=1,71=2,74=-5,140=1/1,2,3;
 4//1;
 5/5=2,38=5,98=1/2;
 8/6=4,10=90,11=11/1;
 11/6=1,8=1,9=11,15=111,16=1/1,2,10;
 10/6=1/2;
 6/7=2,8=2,9=2,10=2,18=1,28=1/1;
 7/8=1,10=1,25=1/1,2,3,16;
 1/10=4,30=1/3;
 99//99;
 -----
 xPert
 -----
 Symbolic Z-matrix:
 Charge =  0 Multiplicity = 1
 O                     0.        0.        0.11121 
 H                     0.        0.80064  -0.44485 
 H                     0.       -0.80064  -0.34485 
 

 GradGradGradGradGradGradGradGradGradGradGradGradGradGradGradGradGradGrad
 Berny optimization.
 Initialization pass.
 Trust Radius=3.00D-01 FncErr=1.00D-07 GrdErr=1.00D-07
 Number of steps in this run=      2 maximum allowed number of steps=      2.
 GradGradGradGradGradGradGradGradGradGradGradGradGradGradGradGradGradGrad

                          Input orientation:                          
 ---------------------------------------------------------------------
 Center     Atomic      Atomic             Coordinates (Angstroms)
 Number     Number       Type             X           Y           Z
 ---------------------------------------------------------------------
      1          8           0        0.000000    0.000000    0.111212
      2          1           0        0.000000    0.800638   -0.444849
      3          1           0        0.000000   -0.800638   -0.344849
 ---------------------------------------------------------------------
                    Distance matrix (angstroms):
                    1          2          3
     1  O    0.000000
     2  H    0.974795   0.000000
     3  H    0.921419   1.604395   0.000000
 Stoichiometry    H2O
 Framework group  CS[SG(H2O)]
 Deg. of freedom     3
 Full point group                 CS      NOp   2
 Largest Abelian subgroup         CS      NOp   2
 Largest concise Abelian subgroup C1      NOp   1
                         Standard orientation:                         
 ---------------------------------------------------------------------
 Center     Atomic      Atomic             Coordinates (Angstroms)
 Number     Number       Type             X           Y           Z
 ---------------------------------------------------------------------
      1          8           0        0.000000    0.101212    0.000000
      2          1           0        0.800638   -0.454849    0.000000
      3          1           0       -0.800638   -0.354849    0.000000
 ---------------------------------------------------------------------
 Rotational constants (GHZ):   1109.0482457    388.7952428    287.8756594
 Standard basis: 6-31+G (6D, 7F)
 There are    14 symmetry adapted cartesian basis functions of A'  symmetry.
 There are     3 symmetry adapted cartesian basis functions of A"  symmetry.
 There are    14 symmetry adapted basis functions of A'  symmetry.
 There are     3 symmetry adapted basis functions of A"  symmetry.
    17 basis functions,    34 primitive gaussians,    17 cartesian basis functions
     5 alpha electrons        5 beta electrons
       nuclear repulsion energy         9.2671650365 Hartrees.
 NAtoms=    3 NActive=    3 NUniq=    3 SFac= 1.00D+00 NAtFMM=   60 NAOKFM=F Big=F
 Integral buffers will be    131072 words long.
 Raffenetti 2 integral format.
 Two-electron integral symmetry is turned on.
 One-electron integrals computed using PRISM.
 NBasis=    17 RedAO= T EigKep=  3.81D-02  NBF=    14     3
 NBsUse=    17 1.00D-06 EigRej= -1.00D+00 NBFU=    14     3
 ExpMin= 8.45D-02 ExpMax= 5.48D+03 ExpMxC= 8.25D+02 IAcc=2 IRadAn=         4 AccDes= 0.00D+00
 Harris functional with IExCor=  402 and IRadAn=       4 diagonalized for initial guess.
 HarFok:  IExCor=  402 AccDes= 0.00D+00 IRadAn=         4 IDoV= 1 UseB2=F ITyADJ=14
 ICtDFT=  3500011 ScaDFX=  1.000000  1.000000  1.000000  1.000000
 FoFCou: FMM=F IPFlag=           0 FMFlag=      100000 FMFlg1=           0
         NFxFlg=           0 DoJE=T BraDBF=F KetDBF=T FulRan=T
         wScrn=  0.000000 ICntrl=     500 IOpCl=  0 I1Cent=   200000004 NGrid=           0
         NMat0=    1 NMatS0=      1 NMatT0=    0 NMatD0=    1 NMtDS0=    0 NMtDT0=    0
 Petite list used in FoFCou.
 Initial guess orbital symmetries:
       Occupied  (A') (A') (A') (A') (A")
       Virtual   (A') (A') (A') (A") (A') (A') (A') (A') (A") (A')
                 (A') (A')
 The electronic state of the initial guess is 1-A'.
 Keep R1 ints in memory in symmetry-blocked form, NReq=891578.
 Requested convergence on RMS density matrix=1.00D-08 within 128 cycles.
 Requested convergence on MAX density matrix=1.00D-06.
 Requested convergence on             energy=1.00D-06.
 No special actions if energy rises.
 Integral accuracy reduced to 1.0D-05 until final iterations.
 Initial convergence to 1.0D-05 achieved.  Increase integral accuracy.
 SCF Done:  E(RB3LYP) =  -76.3980843800     A.U. after    9 cycles
            NFock=  9  Conv=0.98D-08     -V/T= 2.0049
 DoSCS=F DFT=T ScalE2(SS,OS)=  1.000000  1.000000
 Range of M.O.s used for correlation:     1    17
 NBasis=    17 NAE=     5 NBE=     5 NFC=     0 NFV=     0
 NROrb=     17 NOA=     5 NOB=     5 NVA=    12 NVB=    12
 Symmetrizing basis deriv contribution to polar:
 IMax=3 JMax=2 DiffMx= 0.00D+00
 G2DrvN: will do     4 centers at a time, making    1 passes.
 Calling FoFCou, ICntrl=  3107 FMM=F I1Cent=   0 AccDes= 0.00D+00.
 End of G2Drv F.D. properties file   721 does not exist.
 End of G2Drv F.D. properties file   722 does not exist.
 End of G2Drv F.D. properties file   788 does not exist.
          IDoAtm=111
          Differentiating once with respect to electric field.
                with respect to dipole field.
          Differentiating once with respect to nuclear coordinates.
 Keep R1 ints in memory in symmetry-blocked form, NReq=870761.
          There are    12 degrees of freedom in the 1st order CPHF.  IDoFFX=6 NUNeed=     3.
      9 vectors produced by pass  0 Test12= 5.00D-16 8.33D-09 XBig12= 3.27D+00 1.43D+00.
 AX will form     9 AO Fock derivatives at one time.
      9 vectors produced by pass  1 Test12= 5.00D-16 8.33D-09 XBig12= 1.85D-01 1.54D-01.
      9 vectors produced by pass  2 Test12= 5.00D-16 8.33D-09 XBig12= 3.15D-04 8.05D-03.
      9 vectors produced by pass  3 Test12= 5.00D-16 8.33D-09 XBig12= 8.86D-08 1.51D-04.
      8 vectors produced by pass  4 Test12= 5.00D-16 8.33D-09 XBig12= 4.20D-11 3.33D-06.
      2 vectors produced by pass  5 Test12= 5.00D-16 8.33D-09 XBig12= 5.38D-15 3.56D-08.
 InvSVY:  IOpt=1 It=  1 EMax= 7.77D-16
 Solved reduced A of dimension    46 with     9 vectors.
 Isotropic polarizability for W=    0.000000        6.08 Bohr**3.
 End of Minotr F.D. properties file   721 does not exist.
 End of Minotr F.D. properties file   722 does not exist.
 End of Minotr F.D. properties file   788 does not exist.

 **********************************************************************

            Population analysis using the SCF density.

 **********************************************************************

 Orbital symmetries:
       Occupied  (A') (A') (A') (A') (A")
       Virtual   (A') (A') (A") (A') (A') (A') (A') (A') (A") (A')
                 (A') (A')
 The electronic state is 1-A'.
 Alpha  occ. eigenvalues --  -19.15714  -1.04012  -0.57719  -0.36686  -0.32044
 Alpha virt. eigenvalues --    0.02426   0.11111   0.15493   0.16081   0.21367
 Alpha virt. eigenvalues --    0.23290   1.00085   1.06699   1.11335   1.14925
 Alpha virt. eigenvalues --    1.17712   1.45492
          Condensed to atoms (all electrons):
               1          2          3
     1  O    8.392889   0.244255   0.238954
     2  H    0.244255   0.349289  -0.030140
     3  H    0.238954  -0.030140   0.351684
 Mulliken charges:
               1
     1  O   -0.876098
     2  H    0.436596
     3  H    0.439502
 Sum of Mulliken charges =   0.00000
 Mulliken charges with hydrogens summed into heavy atoms:
               1
     1  O    0.000000
 APT charges:
               1
     1  O   -0.675631
     2  H    0.334582
     3  H    0.341049
 Sum of APT charges =   0.00000
 APT charges with hydrogens summed into heavy atoms:
               1
     1  O    0.000000
 Electronic spatial extent (au):  <R**2>=             20.1296
 Charge=              0.0000 electrons
 Dipole moment (field-independent basis, Debye):
    X=             -0.0656    Y=             -2.4465    Z=              0.0000  Tot=              2.4474
 Quadrupole moment (field-independent basis, Debye-Ang):
   XX=             -4.0178   YY=             -6.9939   ZZ=             -7.9132
   XY=             -0.2025   XZ=              0.0000   YZ=              0.0000
 Traceless Quadrupole moment (field-independent basis, Debye-Ang):
   XX=              2.2905   YY=             -0.6856   ZZ=             -1.6049
   XY=             -0.2025   XZ=              0.0000   YZ=              0.0000
 Octapole moment (field-independent basis, Debye-Ang**2):
  XXX=             -0.0791  YYY=             -1.6885  ZZZ=              0.0000  XYY=              0.0772
  XXY=             -1.3360  XXZ=              0.0000  XZZ=             -0.0447  YZZ=             -0.5274
  YYZ=              0.0000  XYZ=              0.0000
 Hexadecapole moment (field-independent basis, Debye-Ang**3):
 XXXX=             -6.0592 YYYY=             -8.3575 ZZZZ=             -7.9544 XXXY=             -0.0523
 XXXZ=              0.0000 YYYX=             -0.0142 YYYZ=              0.0000 ZZZX=              0.0000
 ZZZY=              0.0000 XXYY=             -2.2456 XXZZ=             -2.6410 YYZZ=             -2.7476
 XXYZ=              0.0000 YYXZ=              0.0000 ZZXY=              0.0258
 N-N= 9.267165036550D+00 E-N=-1.990122261933D+02  KE= 7.602344118813D+01
 Symmetry A'   KE= 7.154542784394D+01
 Symmetry A"   KE= 4.478013344189D+00
  Exact polarizability:   7.417  -0.391   5.520   0.000   0.000   5.302
 Approx polarizability:   8.686  -0.555   5.754   0.000   0.000   4.942
 Calling FoFJK, ICntrl=    100127 FMM=F ISym2X=1 I1Cent= 0 IOpClX= 0 NMat=1 NMatS=1 NMatT=0.
 Full mass-weighted force constant matrix:
 Low frequencies --- -986.6015 -697.0768   -0.0009    0.0011    0.0014  208.9118
 Low frequencies --- 1409.9912 3700.7739 4487.9814
 Diagonal vibrational polarizability:
        0.1182925       2.0478444       0.0000000
 Harmonic frequencies (cm**-1), IR intensities (KM/Mole), Raman scattering
 activities (A**4/AMU), depolarization ratios for plane and unpolarized
 incident light, reduced masses (AMU), force constants (mDyne/A),
 and normal coordinates:
                      1                      2                      3
                     A'                     A'                     A'
 Frequencies --   1373.0653              3700.7556              4487.9463
 Red. masses --      1.0951                 1.0536                 1.0713
 Frc consts  --      1.2164                 8.5016                12.7128
 IR Inten    --    144.0166                23.0526                48.7414
  Atom  AN      X      Y      Z        X      Y      Z        X      Y      Z
     1   8     0.00   0.08   0.00    -0.04   0.03   0.00     0.06   0.02   0.00
     2   1    -0.37  -0.58   0.00     0.84  -0.52   0.00    -0.09   0.09   0.00
     3   1     0.35  -0.63   0.00    -0.15  -0.03   0.00    -0.87  -0.47   0.00

 -------------------
 - Thermochemistry -
 -------------------
 Temperature   298.150 Kelvin.  Pressure   1.00000 Atm.
 Atom     1 has atomic number  8 and mass  15.99491
 Atom     2 has atomic number  1 and mass   1.00783
 Atom     3 has atomic number  1 and mass   1.00783
 Molecular mass:    18.01056 amu.
 Principal axes and moments of inertia in atomic units:
                           1         2         3
     Eigenvalues --     1.62729   4.64188   6.26917
           X            0.99538   0.09603   0.00000
           Y           -0.09603   0.99538   0.00000
           Z            0.00000   0.00000   1.00000
 This molecule is an asymmetric top.
 Rotational symmetry number  1.
 Rotational temperatures (Kelvin)     53.22586    18.65921    13.81584
 Rotational constants (GHZ):        1109.04825   388.79524   287.87566
 Zero-point vibrational energy      57192.1 (Joules/Mol)
                                   13.66923 (Kcal/Mol)
 Vibrational temperatures:   1975.53  5324.56  6457.15
          (Kelvin)
 
 Zero-point correction=                           0.021783 (Hartree/Particle)
 Thermal correction to Energy=                    0.024624
 Thermal correction to Enthalpy=                  0.025568
 Thermal correction to Gibbs Free Energy=         0.003587
 Sum of electronic and zero-point Energies=            -76.376301
 Sum of electronic and thermal Energies=               -76.373460
 Sum of electronic and thermal Enthalpies=             -76.372516
 Sum of electronic and thermal Free Energies=          -76.394498
 
                     E (Thermal)             CV                S
                      KCal/Mol        Cal/Mol-Kelvin    Cal/Mol-Kelvin
 Total                   15.452              6.078             46.264
 Electronic               0.000              0.000              0.000
 Translational            0.889              2.981             34.608
 Rotational               0.889              2.981             11.636
 Vibrational             13.674              0.116              0.020
                       Q            Log10(Q)             Ln(Q)
 Total Bot       0.224000D-01         -1.649752         -3.798695
 Total V=0       0.234343D+09          8.369853         19.272299
 Vib (Bot)       0.957130D-10        -10.019029        -23.069667
 Vib (V=0)       0.100133D+01          0.000576          0.001326
 Electronic      0.100000D+01          0.000000          0.000000
 Translational   0.300432D+07          6.477746         14.915562
 Rotational      0.778988D+02          1.891531          4.355410
 ***** Axes restored to original set *****
 -------------------------------------------------------------------
 Center     Atomic                   Forces (Hartrees/Bohr)
 Number     Number              X              Y              Z
 -------------------------------------------------------------------
      1        8           0.000000000    0.053933139    0.034150072
      2        1           0.000000000   -0.006785438   -0.001290983
      3        1           0.000000000   -0.047147701   -0.032859089
 -------------------------------------------------------------------
 Cartesian Forces:  Max     0.053933139 RMS     0.028723481

 GradGradGradGradGradGradGradGradGradGradGradGradGradGradGradGradGradGrad
 Berny optimization.
 Search for a local minimum.
 Step number   1 out of a maximum of    2
 All quantities printed in internal units (Hartrees-Bohrs-Radians)
 Second derivative matrix not updated -- analytic derivatives used.
 The second derivative matrix:
                          X1        Y1        Z1        X2        Y2
           X1          -0.03919
           Y1           0.00000   0.88588
           Z1           0.00000   0.09459   0.35405
           X2           0.00178   0.00000   0.00000   0.00132
           Y2           0.00000  -0.34508   0.16763   0.00000   0.36634
           Z2           0.00000   0.23786  -0.17837   0.00000  -0.20542
           X3           0.03741   0.00000   0.00000  -0.00310   0.00000
           Y3           0.00000  -0.54081  -0.26222   0.00000  -0.02127
           Z3           0.00000  -0.33246  -0.17568   0.00000   0.03779
                          Z2        X3        Y3        Z3
           Z2           0.17200
           X3           0.00000  -0.03431
           Y3          -0.03244   0.00000   0.56207
           Z3           0.00637   0.00000   0.29466   0.16931
 ITU=  0
     Eigenvalues ---    0.11636   0.71496   1.26486
 Angle between quadratic step and forces=  51.16 degrees.
 ClnCor:  largest displacement from symmetrization is 7.70D-34 for atom     2.
 Linear search not attempted -- first point.
 ClnCor:  largest displacement from symmetrization is 1.54D-33 for atom     2.
 TrRot=  0.000000  0.010939  0.025725  0.000000  0.000000  0.000000
 Variable       Old X    -DE/DX   Delta X   Delta X   Delta X     New X
                                 (Linear)    (Quad)   (Total)
    X1        0.00000   0.00000   0.00000   0.00000   0.00000   0.00000
    Y1        0.00000   0.05393   0.00000   0.01795   0.02889   0.02889
    Z1        0.21016   0.03415   0.00000   0.04221   0.06793   0.27809
    X2        0.00000   0.00000   0.00000   0.00000   0.00000   0.00000
    Y2        1.51299  -0.00679   0.00000  -0.03930  -0.02836   1.48463
    Z2       -0.84064  -0.00129   0.00000  -0.04278  -0.01705  -0.85770
    X3        0.00000   0.00000   0.00000   0.00000   0.00000   0.00000
    Y3       -1.51299  -0.04715   0.00000  -0.01147  -0.00053  -1.51352
    Z3       -0.65167  -0.03286   0.00000  -0.07660  -0.05088  -0.70255
         Item               Value     Threshold  Converged?
 Maximum Force            0.053933     0.000450     NO 
 RMS     Force            0.028723     0.000300     NO 
 Maximum Displacement     0.067933     0.001800     NO 
 RMS     Displacement     0.031856     0.001200     NO 
 Predicted change in Energy=-2.894584D-03
 GradGradGradGradGradGradGradGradGradGradGradGradGradGradGradGradGradGrad

 1\1\GINC-ILMFIXE086\Freq\RB3LYP\6-31+G\H2O1\ALLOUCHE\20-Feb-2020\0\\#B
 3LYP/6-31+G Freq\\xPert\\0,1\O,0.,0.,0.111212\H,0.,0.800638,-0.444849\
 H,0.,-0.800638,-0.344849\\Version=EM64L-G09RevD.01\State=1-A'\HF=-76.3
 980844\RMSD=9.840e-09\RMSF=2.872e-02\ZeroPoint=0.0217833\Thermal=0.024
 6242\Dipole=0.,-0.0258272,-0.9625339\DipoleDeriv=-1.0082393,0.,0.,0.,-
 0.5749086,0.0113292,0.,-0.0289263,-0.443746,0.4955666,0.,0.,0.,0.29977
 69,0.1307167,0.,0.1500899,0.2084027,0.5126726,0.,0.,0.,0.2751317,-0.14
 20459,0.,-0.1211635,0.2353433\Polar=5.3024984,0.,7.4172816,0.,-0.39142
 98,5.520115\PG=CS [SG(H2O1)]\NImag=0\\-0.03919024,0.,0.88588404,0.,0.0
 9459410,0.35405212,0.00178037,0.,0.,0.00131948,0.,-0.34507553,0.167625
 51,0.,0.36634110,0.,0.23786149,-0.17837310,0.,-0.20541744,0.17200066,0
 .03740987,0.,0.,-0.00309985,0.,0.,-0.03431003,0.,-0.54080851,-0.262219
 62,0.,-0.02126557,-0.03244405,0.,0.56207408,0.,-0.33245560,-0.17567902
 ,0.,0.03779193,0.00637244,0.,0.29466367,0.16930658\\0.,-0.05393314,-0.
 03415007,0.,0.00678544,0.00129098,0.,0.04714770,0.03285909\\\@


  THE LARGE PRINT GIVETH,
  AND THE SMALL PRINT TAKETH AWAY.

                     -- TOM WAITS
 Job cpu time:       0 days  0 hours  0 minutes  3.3 seconds.
 File lengths (MBytes):  RWF=      5 Int=      0 D2E=      0 Chk=      1 Scr=      1
 Normal termination of Gaussian 09 at Thu Feb 20 17:52:09 2020.
